MODEL 1
REMARK VINA RESULT:    -8.852      0.000      0.000
REMARK INTER + INTRA:         -14.429
REMARK INTER:                 -13.251
REMARK INTRA:                  -1.177
REMARK UNBOUND:                -1.177
REMARK SMILES C[C@H]1N[C@@H](N[C@@H](O)N2CCC[C@H]2[C@@H](N)O)S[C@@H]1[C@H]1CCN[C@H](C(C)(C)C(F)(F)F)C1
REMARK SMILES IDX 5 1 4 3 2 4 17 5 3 6 16 7 1 8 18 10 19 11 30 12 20 13 22 14
REMARK SMILES IDX 21 15 23 17 24 18 25 19 26 20 27 21 28 22 29 23 6 24 7 25
REMARK SMILES IDX 8 27 12 28 9 29 11 30 10 31 13 32 15 33 14 35
REMARK H PARENT 5 2 3 9 21 16 7 26 15 34 14 36 14 37
ROOT
ATOM      1  N   UNL     1      -0.040 -10.161  13.750  1.00  0.00    -0.255 NA
ATOM      2  H   UNL     1       0.102 -11.011  13.187  1.00  0.00     0.129 HD
ENDROOT
BRANCH   1   3
ATOM      3  C   UNL     1      -1.008 -10.490  14.681  1.00  0.00     0.185 C 
ATOM      4  C   UNL     1      -2.904 -11.370  15.404  1.00  0.00     0.066 C 
ATOM      5  C   UNL     1      -2.433 -10.898  16.626  1.00  0.00     0.069 C 
ATOM      6  N   UNL     1      -2.085 -11.138  14.318  1.00  0.00    -0.290 NA
ATOM      7  S   UNL     1      -0.903 -10.097  16.360  1.00  0.00    -0.122 SA
ATOM      8  C   UNL     1      -4.183 -12.111  15.185  1.00  0.00     0.025 C 
ATOM      9  H   UNL     1      -1.812 -12.040  13.902  1.00  0.00     0.125 HD
BRANCH   5  10
ATOM     10  C   UNL     1      -2.948 -10.914  18.013  1.00  0.00     0.006 C 
ATOM     11  C   UNL     1      -4.091 -11.628  18.353  1.00  0.00     0.020 C 
ATOM     12  C   UNL     1      -2.265 -10.226  19.012  1.00  0.00     0.024 C 
ATOM     13  C   UNL     1      -4.530 -11.588  19.658  1.00  0.00     0.081 C 
ATOM     14  C   UNL     1      -2.780 -10.261  20.316  1.00  0.00     0.068 C 
ATOM     15  N   UNL     1      -3.905 -10.914  20.635  1.00  0.00    -0.313 NA
ATOM     16  H   UNL     1      -4.571 -10.221  21.004  1.00  0.00     0.122 HD
BRANCH  14  17
ATOM     17  C   UNL     1      -2.037  -9.575  21.488  1.00  0.00     0.076 C 
ATOM     18  C   UNL     1      -1.471  -8.210  21.066  1.00  0.00     0.022 C 
ATOM     19  C   UNL     1      -2.988  -9.394  22.685  1.00  0.00     0.022 C 
BRANCH  17  20
ATOM     20  C   UNL     1      -0.779 -10.496  21.971  1.00  0.00     0.395 C 
ATOM     21  F   UNL     1      -0.902 -11.737  21.503  1.00  0.00    -0.170 F 
ATOM     22  F   UNL     1       0.393 -10.035  21.550  1.00  0.00    -0.170 F 
ATOM     23  F   UNL     1      -0.700 -10.573  23.295  1.00  0.00    -0.170 F 
ENDBRANCH  17  20
ENDBRANCH  14  17
ENDBRANCH   5  10
ENDBRANCH   1   3
BRANCH   1  24
ATOM     24  C   UNL     1      -0.152  -9.110  12.828  1.00  0.00     0.261 C 
BRANCH  24  25
ATOM     25  O   UNL     1      -1.202  -8.872  12.250  1.00  0.00    -0.365 OA
ATOM     26  H   UNL     1      -1.433  -7.916  12.365  1.00  0.00     0.214 HD
ENDBRANCH  24  25
BRANCH  24  27
ATOM     27  N   UNL     1       0.976  -8.347  12.594  1.00  0.00    -0.259 NA
ATOM     28  C   UNL     1       1.359  -7.291  13.546  1.00  0.00     0.104 C 
ATOM     29  C   UNL     1       1.912  -8.454  11.465  1.00  0.00     0.089 C 
ATOM     30  C   UNL     1       2.692  -6.766  12.990  1.00  0.00     0.025 C 
ATOM     31  C   UNL     1       2.698  -7.162  11.533  1.00  0.00     0.017 C 
BRANCH  28  32
ATOM     32  C   UNL     1       0.313  -6.183  13.684  1.00  0.00     0.197 C 
BRANCH  32  33
ATOM     33  O   UNL     1      -0.377  -5.856  12.715  1.00  0.00    -0.377 OA
ATOM     34  H   UNL     1      -1.251  -6.319  12.761  1.00  0.00     0.212 HD
ENDBRANCH  32  33
BRANCH  32  35
ATOM     35  N   UNL     1       0.252  -5.567  14.854  1.00  0.00    -0.305 NA
ATOM     36  H   UNL     1      -0.033  -4.588  14.711  1.00  0.00     0.121 HD
ATOM     37  H   UNL     1      -0.436  -6.041  15.456  1.00  0.00     0.121 HD
ENDBRANCH  32  35
ENDBRANCH  28  32
ENDBRANCH  24  27
ENDBRANCH   1  24
TORSDOF 10
ENDMDL
MODEL 2
REMARK VINA RESULT:    -8.534      2.299      3.332
REMARK INTER + INTRA:         -13.953
REMARK INTER:                 -12.868
REMARK INTRA:                  -1.084
REMARK UNBOUND:                -1.177
REMARK SMILES C[C@H]1N[C@@H](N[C@@H](O)N2CCC[C@H]2[C@@H](N)O)S[C@@H]1[C@H]1CCN[C@H](C(C)(C)C(F)(F)F)C1
REMARK SMILES IDX 5 1 4 3 2 4 17 5 3 6 16 7 1 8 18 10 19 11 30 12 20 13 22 14
REMARK SMILES IDX 21 15 23 17 24 18 25 19 26 20 27 21 28 22 29 23 6 24 7 25
REMARK SMILES IDX 8 27 12 28 9 29 11 30 10 31 13 32 15 33 14 35
REMARK H PARENT 5 2 3 9 21 16 7 26 15 34 14 36 14 37
ROOT
ATOM      1  N   UNL     1       0.686  -8.089  12.225  1.00  0.00    -0.255 NA
ATOM      2  H   UNL     1       1.630  -7.752  12.460  1.00  0.00     0.129 HD
ENDROOT
BRANCH   1   3
ATOM      3  C   UNL     1       0.117  -8.470  13.425  1.00  0.00     0.185 C 
ATOM      4  C   UNL     1      -0.887  -9.838  14.845  1.00  0.00     0.066 C 
ATOM      5  C   UNL     1      -0.752  -8.744  15.694  1.00  0.00     0.069 C 
ATOM      6  N   UNL     1      -0.385  -9.670  13.570  1.00  0.00    -0.290 NA
ATOM      7  S   UNL     1       0.012  -7.444  14.811  1.00  0.00    -0.122 SA
ATOM      8  C   UNL     1      -1.495 -11.155  15.201  1.00  0.00     0.025 C 
ATOM      9  H   UNL     1       0.354 -10.367  13.403  1.00  0.00     0.125 HD
BRANCH   5  10
ATOM     10  C   UNL     1      -1.126  -8.469  17.099  1.00  0.00     0.006 C 
ATOM     11  C   UNL     1      -0.888  -7.229  17.683  1.00  0.00     0.020 C 
ATOM     12  C   UNL     1      -1.755  -9.454  17.853  1.00  0.00     0.024 C 
ATOM     13  C   UNL     1      -1.242  -7.041  19.000  1.00  0.00     0.081 C 
ATOM     14  C   UNL     1      -2.096  -9.161  19.182  1.00  0.00     0.068 C 
ATOM     15  N   UNL     1      -1.827  -7.981  19.756  1.00  0.00    -0.313 NA
ATOM     16  H   UNL     1      -1.206  -8.162  20.558  1.00  0.00     0.122 HD
BRANCH  14  17
ATOM     17  C   UNL     1      -2.857 -10.186  20.058  1.00  0.00     0.076 C 
ATOM     18  C   UNL     1      -3.860  -9.485  20.989  1.00  0.00     0.022 C 
ATOM     19  C   UNL     1      -3.597 -11.199  19.168  1.00  0.00     0.022 C 
BRANCH  17  20
ATOM     20  C   UNL     1      -1.808 -11.006  21.002  1.00  0.00     0.395 C 
ATOM     21  F   UNL     1      -2.290 -11.131  22.238  1.00  0.00    -0.170 F 
ATOM     22  F   UNL     1      -1.559 -12.232  20.556  1.00  0.00    -0.170 F 
ATOM     23  F   UNL     1      -0.634 -10.392  21.090  1.00  0.00    -0.170 F 
ENDBRANCH  17  20
ENDBRANCH  14  17
ENDBRANCH   5  10
ENDBRANCH   1   3
BRANCH   1  24
ATOM     24  C   UNL     1       0.851  -8.938  11.120  1.00  0.00     0.261 C 
BRANCH  24  25
ATOM     25  O   UNL     1      -0.102  -9.340  10.471  1.00  0.00    -0.365 OA
ATOM     26  H   UNL     1      -0.806  -8.644  10.452  1.00  0.00     0.214 HD
ENDBRANCH  24  25
BRANCH  24  27
ATOM     27  N   UNL     1       2.141  -9.305  10.790  1.00  0.00    -0.259 NA
ATOM     28  C   UNL     1       3.224  -8.308  10.830  1.00  0.00     0.104 C 
ATOM     29  C   UNL     1       2.619 -10.638  10.388  1.00  0.00     0.089 C 
ATOM     30  C   UNL     1       4.485  -9.124  10.506  1.00  0.00     0.025 C 
ATOM     31  C   UNL     1       3.985 -10.361   9.798  1.00  0.00     0.017 C 
BRANCH  28  32
ATOM     32  C   UNL     1       3.021  -7.145   9.856  1.00  0.00     0.197 C 
BRANCH  32  33
ATOM     33  O   UNL     1       3.303  -7.278   8.662  1.00  0.00    -0.377 OA
ATOM     34  H   UNL     1       3.999  -6.621   8.412  1.00  0.00     0.212 HD
ENDBRANCH  32  33
BRANCH  32  35
ATOM     35  N   UNL     1       2.607  -6.001  10.376  1.00  0.00    -0.305 NA
ATOM     36  H   UNL     1       2.504  -6.104  11.395  1.00  0.00     0.121 HD
ATOM     37  H   UNL     1       3.297  -5.262  10.173  1.00  0.00     0.121 HD
ENDBRANCH  32  35
ENDBRANCH  28  32
ENDBRANCH  24  27
ENDBRANCH   1  24
TORSDOF 10
ENDMDL
MODEL 3
REMARK VINA RESULT:    -8.452      1.724      2.858
REMARK INTER + INTRA:         -13.829
REMARK INTER:                 -12.982
REMARK INTRA:                  -0.847
REMARK UNBOUND:                -1.177
REMARK SMILES C[C@H]1N[C@@H](N[C@@H](O)N2CCC[C@H]2[C@@H](N)O)S[C@@H]1[C@H]1CCN[C@H](C(C)(C)C(F)(F)F)C1
REMARK SMILES IDX 5 1 4 3 2 4 17 5 3 6 16 7 1 8 18 10 19 11 30 12 20 13 22 14
REMARK SMILES IDX 21 15 23 17 24 18 25 19 26 20 27 21 28 22 29 23 6 24 7 25
REMARK SMILES IDX 8 27 12 28 9 29 11 30 10 31 13 32 15 33 14 35
REMARK H PARENT 5 2 3 9 21 16 7 26 15 34 14 36 14 37
ROOT
ATOM      1  N   UNL     1       0.324  -8.688  13.303  1.00  0.00    -0.255 NA
ATOM      2  H   UNL     1      -0.252  -9.123  12.569  1.00  0.00     0.129 HD
ENDROOT
BRANCH   1   3
ATOM      3  C   UNL     1      -0.369  -8.883  14.483  1.00  0.00     0.185 C 
ATOM      4  C   UNL     1      -1.108  -8.370  16.504  1.00  0.00     0.066 C 
ATOM      5  C   UNL     1      -1.744  -9.601  16.373  1.00  0.00     0.069 C 
ATOM      6  N   UNL     1      -0.341  -7.976  15.426  1.00  0.00    -0.290 NA
ATOM      7  S   UNL     1      -1.312 -10.289  14.826  1.00  0.00    -0.122 SA
ATOM      8  C   UNL     1      -1.205  -7.454  17.680  1.00  0.00     0.025 C 
ATOM      9  H   UNL     1      -0.711  -7.090  15.054  1.00  0.00     0.125 HD
BRANCH   5  10
ATOM     10  C   UNL     1      -2.638 -10.405  17.237  1.00  0.00     0.006 C 
ATOM     11  C   UNL     1      -3.404 -11.443  16.719  1.00  0.00     0.020 C 
ATOM     12  C   UNL     1      -2.699 -10.143  18.602  1.00  0.00     0.024 C 
ATOM     13  C   UNL     1      -4.230 -12.142  17.571  1.00  0.00     0.081 C 
ATOM     14  C   UNL     1      -3.556 -10.923  19.392  1.00  0.00     0.068 C 
ATOM     15  N   UNL     1      -4.326 -11.895  18.885  1.00  0.00    -0.313 NA
ATOM     16  H   UNL     1      -5.306 -11.646  19.081  1.00  0.00     0.122 HD
BRANCH  14  17
ATOM     17  C   UNL     1      -3.624 -10.733  20.927  1.00  0.00     0.076 C 
ATOM     18  C   UNL     1      -4.103  -9.318  21.291  1.00  0.00     0.022 C 
ATOM     19  C   UNL     1      -4.569 -11.776  21.549  1.00  0.00     0.022 C 
BRANCH  17  20
ATOM     20  C   UNL     1      -2.143 -10.930  21.583  1.00  0.00     0.395 C 
ATOM     21  F   UNL     1      -1.495 -11.928  20.985  1.00  0.00    -0.170 F 
ATOM     22  F   UNL     1      -1.379  -9.850  21.474  1.00  0.00    -0.170 F 
ATOM     23  F   UNL     1      -2.208 -11.215  22.879  1.00  0.00    -0.170 F 
ENDBRANCH  17  20
ENDBRANCH  14  17
ENDBRANCH   5  10
ENDBRANCH   1   3
BRANCH   1  24
ATOM     24  C   UNL     1       0.696  -7.433  12.800  1.00  0.00     0.261 C 
BRANCH  24  25
ATOM     25  O   UNL     1       0.023  -6.434  13.005  1.00  0.00    -0.365 OA
ATOM     26  H   UNL     1       0.189  -5.771  12.288  1.00  0.00     0.214 HD
ENDBRANCH  24  25
BRANCH  24  27
ATOM     27  N   UNL     1       1.859  -7.365  12.057  1.00  0.00    -0.259 NA
ATOM     28  C   UNL     1       1.810  -7.535  10.596  1.00  0.00     0.104 C 
ATOM     29  C   UNL     1       3.224  -7.123  12.550  1.00  0.00     0.089 C 
ATOM     30  C   UNL     1       3.260  -7.291  10.150  1.00  0.00     0.025 C 
ATOM     31  C   UNL     1       4.099  -7.530  11.384  1.00  0.00     0.017 C 
BRANCH  28  32
ATOM     32  C   UNL     1       1.293  -8.907  10.156  1.00  0.00     0.197 C 
BRANCH  32  33
ATOM     33  O   UNL     1       0.113  -9.216  10.344  1.00  0.00    -0.377 OA
ATOM     34  H   UNL     1       0.001 -10.189  10.198  1.00  0.00     0.212 HD
ENDBRANCH  32  33
BRANCH  32  35
ATOM     35  N   UNL     1       2.185  -9.741   9.646  1.00  0.00    -0.305 NA
ATOM     36  H   UNL     1       1.849 -10.087   8.736  1.00  0.00     0.121 HD
ATOM     37  H   UNL     1       3.081  -9.250   9.517  1.00  0.00     0.121 HD
ENDBRANCH  32  35
ENDBRANCH  28  32
ENDBRANCH  24  27
ENDBRANCH   1  24
TORSDOF 10
ENDMDL
MODEL 4
REMARK VINA RESULT:    -8.402      1.245      2.325
REMARK INTER + INTRA:         -13.754
REMARK INTER:                 -12.433
REMARK INTRA:                  -1.321
REMARK UNBOUND:                -1.177
REMARK SMILES C[C@H]1N[C@@H](N[C@@H](O)N2CCC[C@H]2[C@@H](N)O)S[C@@H]1[C@H]1CCN[C@H](C(C)(C)C(F)(F)F)C1
REMARK SMILES IDX 5 1 4 3 2 4 17 5 3 6 16 7 1 8 18 10 19 11 30 12 20 13 22 14
REMARK SMILES IDX 21 15 23 17 24 18 25 19 26 20 27 21 28 22 29 23 6 24 7 25
REMARK SMILES IDX 8 27 12 28 9 29 11 30 10 31 13 32 15 33 14 35
REMARK H PARENT 5 2 3 9 21 16 7 26 15 34 14 36 14 37
ROOT
ATOM      1  N   UNL     1       0.774  -6.942  14.510  1.00  0.00    -0.255 NA
ATOM      2  H   UNL     1       1.744  -7.219  14.716  1.00  0.00     0.129 HD
ENDROOT
BRANCH   1   3
ATOM      3  C   UNL     1      -0.022  -7.881  15.139  1.00  0.00     0.185 C 
ATOM      4  C   UNL     1      -1.163  -9.766  15.327  1.00  0.00     0.066 C 
ATOM      5  C   UNL     1      -1.386  -9.278  16.611  1.00  0.00     0.069 C 
ATOM      6  N   UNL     1      -0.386  -8.969  14.511  1.00  0.00    -0.290 NA
ATOM      7  S   UNL     1      -0.599  -7.725  16.760  1.00  0.00    -0.122 SA
ATOM      8  C   UNL     1      -1.667 -11.064  14.784  1.00  0.00     0.025 C 
ATOM      9  H   UNL     1       0.454  -9.494  14.228  1.00  0.00     0.125 HD
BRANCH   5  10
ATOM     10  C   UNL     1      -2.130  -9.766  17.793  1.00  0.00     0.006 C 
ATOM     11  C   UNL     1      -3.237 -10.597  17.660  1.00  0.00     0.020 C 
ATOM     12  C   UNL     1      -1.705  -9.416  19.071  1.00  0.00     0.024 C 
ATOM     13  C   UNL     1      -3.899 -11.003  18.798  1.00  0.00     0.081 C 
ATOM     14  C   UNL     1      -2.432  -9.895  20.170  1.00  0.00     0.068 C 
ATOM     15  N   UNL     1      -3.524 -10.661  20.040  1.00  0.00    -0.313 NA
ATOM     16  H   UNL     1      -4.310 -10.152  20.469  1.00  0.00     0.122 HD
BRANCH  14  17
ATOM     17  C   UNL     1      -1.978  -9.602  21.621  1.00  0.00     0.076 C 
ATOM     18  C   UNL     1      -1.515  -8.144  21.774  1.00  0.00     0.022 C 
ATOM     19  C   UNL     1      -3.126  -9.887  22.604  1.00  0.00     0.022 C 
BRANCH  17  20
ATOM     20  C   UNL     1      -0.716 -10.557  22.018  1.00  0.00     0.395 C 
ATOM     21  F   UNL     1      -0.846 -11.759  21.458  1.00  0.00    -0.170 F 
ATOM     22  F   UNL     1       0.452 -10.067  21.620  1.00  0.00    -0.170 F 
ATOM     23  F   UNL     1      -0.622 -10.735  23.331  1.00  0.00    -0.170 F 
ENDBRANCH  17  20
ENDBRANCH  14  17
ENDBRANCH   5  10
ENDBRANCH   1   3
BRANCH   1  24
ATOM     24  C   UNL     1       0.742  -6.669  13.134  1.00  0.00     0.261 C 
BRANCH  24  25
ATOM     25  O   UNL     1      -0.190  -6.070  12.619  1.00  0.00    -0.365 OA
ATOM     26  H   UNL     1      -0.558  -6.608  11.874  1.00  0.00     0.214 HD
ENDBRANCH  24  25
BRANCH  24  27
ATOM     27  N   UNL     1       1.811  -7.107  12.375  1.00  0.00    -0.259 NA
ATOM     28  C   UNL     1       1.571  -7.802  11.100  1.00  0.00     0.104 C 
ATOM     29  C   UNL     1       3.244  -6.958  12.675  1.00  0.00     0.089 C 
ATOM     30  C   UNL     1       2.983  -8.021  10.532  1.00  0.00     0.025 C 
ATOM     31  C   UNL     1       3.907  -7.931  11.724  1.00  0.00     0.017 C 
BRANCH  28  32
ATOM     32  C   UNL     1       0.800  -9.114  11.253  1.00  0.00     0.197 C 
BRANCH  32  33
ATOM     33  O   UNL     1      -0.389  -9.102  11.585  1.00  0.00    -0.377 OA
ATOM     34  H   UNL     1      -0.924  -8.663  10.877  1.00  0.00     0.212 HD
ENDBRANCH  32  33
BRANCH  32  35
ATOM     35  N   UNL     1       1.489 -10.231  11.086  1.00  0.00    -0.305 NA
ATOM     36  H   UNL     1       2.107 -10.134  10.268  1.00  0.00     0.121 HD
ATOM     37  H   UNL     1       2.057 -10.414  11.926  1.00  0.00     0.121 HD
ENDBRANCH  32  35
ENDBRANCH  28  32
ENDBRANCH  24  27
ENDBRANCH   1  24
TORSDOF 10
ENDMDL
MODEL 5
REMARK VINA RESULT:    -8.307      1.995      2.729
REMARK INTER + INTRA:         -13.612
REMARK INTER:                 -12.671
REMARK INTRA:                  -0.941
REMARK UNBOUND:                -1.177
REMARK SMILES C[C@H]1N[C@@H](N[C@@H](O)N2CCC[C@H]2[C@@H](N)O)S[C@@H]1[C@H]1CCN[C@H](C(C)(C)C(F)(F)F)C1
REMARK SMILES IDX 5 1 4 3 2 4 17 5 3 6 16 7 1 8 18 10 19 11 30 12 20 13 22 14
REMARK SMILES IDX 21 15 23 17 24 18 25 19 26 20 27 21 28 22 29 23 6 24 7 25
REMARK SMILES IDX 8 27 12 28 9 29 11 30 10 31 13 32 15 33 14 35
REMARK H PARENT 5 2 3 9 21 16 7 26 15 34 14 36 14 37
ROOT
ATOM      1  N   UNL     1      -0.284  -9.287  12.438  1.00  0.00    -0.255 NA
ATOM      2  H   UNL     1      -1.117  -9.006  11.901  1.00  0.00     0.129 HD
ENDROOT
BRANCH   1   3
ATOM      3  C   UNL     1      -0.708  -9.399  13.748  1.00  0.00     0.185 C 
ATOM      4  C   UNL     1      -0.787  -8.893  15.900  1.00  0.00     0.066 C 
ATOM      5  C   UNL     1      -1.743  -9.903  15.906  1.00  0.00     0.069 C 
ATOM      6  N   UNL     1      -0.217  -8.616  14.674  1.00  0.00    -0.290 NA
ATOM      7  S   UNL     1      -1.887 -10.542  14.285  1.00  0.00    -0.122 SA
ATOM      8  C   UNL     1      -0.356  -8.088  17.083  1.00  0.00     0.025 C 
ATOM      9  H   UNL     1      -0.412  -7.636  14.425  1.00  0.00     0.125 HD
BRANCH   5  10
ATOM     10  C   UNL     1      -2.592 -10.524  16.947  1.00  0.00     0.006 C 
ATOM     11  C   UNL     1      -3.455 -11.572  16.648  1.00  0.00     0.020 C 
ATOM     12  C   UNL     1      -2.512 -10.077  18.262  1.00  0.00     0.024 C 
ATOM     13  C   UNL     1      -4.233 -12.096  17.657  1.00  0.00     0.081 C 
ATOM     14  C   UNL     1      -3.330 -10.686  19.224  1.00  0.00     0.068 C 
ATOM     15  N   UNL     1      -4.193 -11.667  18.927  1.00  0.00    -0.313 NA
ATOM     16  H   UNL     1      -5.136 -11.332  19.169  1.00  0.00     0.122 HD
BRANCH  14  17
ATOM     17  C   UNL     1      -3.245 -10.285  20.717  1.00  0.00     0.076 C 
ATOM     18  C   UNL     1      -3.163  -8.759  20.880  1.00  0.00     0.022 C 
ATOM     19  C   UNL     1      -4.468 -10.822  21.481  1.00  0.00     0.022 C 
BRANCH  17  20
ATOM     20  C   UNL     1      -1.902 -10.920  21.393  1.00  0.00     0.395 C 
ATOM     21  F   UNL     1      -1.594 -12.082  20.819  1.00  0.00    -0.170 F 
ATOM     22  F   UNL     1      -0.839 -10.133  21.273  1.00  0.00    -0.170 F 
ATOM     23  F   UNL     1      -2.059 -11.145  22.693  1.00  0.00    -0.170 F 
ENDBRANCH  17  20
ENDBRANCH  14  17
ENDBRANCH   5  10
ENDBRANCH   1   3
BRANCH   1  24
ATOM     24  C   UNL     1       0.747  -8.438  12.008  1.00  0.00     0.261 C 
BRANCH  24  25
ATOM     25  O   UNL     1       0.746  -7.244  12.265  1.00  0.00    -0.365 OA
ATOM     26  H   UNL     1       1.241  -6.754  11.562  1.00  0.00     0.214 HD
ENDBRANCH  24  25
BRANCH  24  27
ATOM     27  N   UNL     1       1.773  -9.006  11.277  1.00  0.00    -0.259 NA
ATOM     28  C   UNL     1       2.943  -8.196  10.900  1.00  0.00     0.104 C 
ATOM     29  C   UNL     1       1.874 -10.395  10.802  1.00  0.00     0.089 C 
ATOM     30  C   UNL     1       3.876  -9.201  10.207  1.00  0.00     0.025 C 
ATOM     31  C   UNL     1       2.980 -10.337   9.771  1.00  0.00     0.017 C 
BRANCH  28  32
ATOM     32  C   UNL     1       2.600  -7.009   9.998  1.00  0.00     0.197 C 
BRANCH  32  33
ATOM     33  O   UNL     1       2.210  -7.199   8.843  1.00  0.00    -0.377 OA
ATOM     34  H   UNL     1       1.363  -7.710   8.861  1.00  0.00     0.212 HD
ENDBRANCH  32  33
BRANCH  32  35
ATOM     35  N   UNL     1       2.814  -5.802  10.497  1.00  0.00    -0.305 NA
ATOM     36  H   UNL     1       2.667  -5.821  11.516  1.00  0.00     0.121 HD
ATOM     37  H   UNL     1       3.782  -5.514  10.295  1.00  0.00     0.121 HD
ENDBRANCH  32  35
ENDBRANCH  28  32
ENDBRANCH  24  27
ENDBRANCH   1  24
TORSDOF 10
ENDMDL
MODEL 6
REMARK VINA RESULT:    -7.996      2.407      3.889
REMARK INTER + INTRA:         -13.147
REMARK INTER:                 -12.672
REMARK INTRA:                  -0.475
REMARK UNBOUND:                -1.177
REMARK SMILES C[C@H]1N[C@@H](N[C@@H](O)N2CCC[C@H]2[C@@H](N)O)S[C@@H]1[C@H]1CCN[C@H](C(C)(C)C(F)(F)F)C1
REMARK SMILES IDX 5 1 4 3 2 4 17 5 3 6 16 7 1 8 18 10 19 11 30 12 20 13 22 14
REMARK SMILES IDX 21 15 23 17 24 18 25 19 26 20 27 21 28 22 29 23 6 24 7 25
REMARK SMILES IDX 8 27 12 28 9 29 11 30 10 31 13 32 15 33 14 35
REMARK H PARENT 5 2 3 9 21 16 7 26 15 34 14 36 14 37
ROOT
ATOM      1  N   UNL     1       0.824  -7.183  12.693  1.00  0.00    -0.255 NA
ATOM      2  H   UNL     1       0.492  -6.209  12.639  1.00  0.00     0.129 HD
ENDROOT
BRANCH   1   3
ATOM      3  C   UNL     1       0.284  -7.696  13.857  1.00  0.00     0.185 C 
ATOM      4  C   UNL     1      -0.337  -7.676  15.980  1.00  0.00     0.066 C 
ATOM      5  C   UNL     1      -0.775  -8.958  15.664  1.00  0.00     0.069 C 
ATOM      6  N   UNL     1       0.251  -6.974  14.948  1.00  0.00    -0.290 NA
ATOM      7  S   UNL     1      -0.382  -9.284  13.993  1.00  0.00    -0.122 SA
ATOM      8  C   UNL     1      -0.472  -7.007  17.309  1.00  0.00     0.025 C 
ATOM      9  H   UNL     1      -0.290  -6.117  14.770  1.00  0.00     0.125 HD
BRANCH   5  10
ATOM     10  C   UNL     1      -1.441 -10.044  16.418  1.00  0.00     0.006 C 
ATOM     11  C   UNL     1      -1.625 -11.305  15.862  1.00  0.00     0.020 C 
ATOM     12  C   UNL     1      -1.871  -9.816  17.722  1.00  0.00     0.024 C 
ATOM     13  C   UNL     1      -2.270 -12.267  16.608  1.00  0.00     0.081 C 
ATOM     14  C   UNL     1      -2.499 -10.866  18.408  1.00  0.00     0.068 C 
ATOM     15  N   UNL     1      -2.715 -12.068  17.857  1.00  0.00    -0.313 NA
ATOM     16  H   UNL     1      -3.733 -12.226  17.850  1.00  0.00     0.122 HD
BRANCH  14  17
ATOM     17  C   UNL     1      -2.942 -10.706  19.883  1.00  0.00     0.076 C 
ATOM     18  C   UNL     1      -2.004 -11.469  20.832  1.00  0.00     0.022 C 
ATOM     19  C   UNL     1      -2.970  -9.217  20.270  1.00  0.00     0.022 C 
BRANCH  17  20
ATOM     20  C   UNL     1      -4.443 -11.314  20.087  1.00  0.00     0.395 C 
ATOM     21  F   UNL     1      -5.017 -11.548  18.908  1.00  0.00    -0.170 F 
ATOM     22  F   UNL     1      -4.451 -12.460  20.758  1.00  0.00    -0.170 F 
ATOM     23  F   UNL     1      -5.230 -10.480  20.758  1.00  0.00    -0.170 F 
ENDBRANCH  17  20
ENDBRANCH  14  17
ENDBRANCH   5  10
ENDBRANCH   1   3
BRANCH   1  24
ATOM     24  C   UNL     1       2.197  -7.131  12.411  1.00  0.00     0.261 C 
BRANCH  24  25
ATOM     25  O   UNL     1       3.027  -6.960  13.291  1.00  0.00    -0.365 OA
ATOM     26  H   UNL     1       2.786  -6.160  13.822  1.00  0.00     0.214 HD
ENDBRANCH  24  25
BRANCH  24  27
ATOM     27  N   UNL     1       2.581  -7.282  11.092  1.00  0.00    -0.259 NA
ATOM     28  C   UNL     1       1.597  -7.715  10.085  1.00  0.00     0.104 C 
ATOM     29  C   UNL     1       3.913  -7.047  10.513  1.00  0.00     0.089 C 
ATOM     30  C   UNL     1       2.379  -7.657   8.763  1.00  0.00     0.025 C 
ATOM     31  C   UNL     1       3.835  -7.721   9.161  1.00  0.00     0.017 C 
BRANCH  28  32
ATOM     32  C   UNL     1       1.019  -9.106  10.354  1.00  0.00     0.197 C 
BRANCH  32  33
ATOM     33  O   UNL     1      -0.203  -9.269  10.416  1.00  0.00    -0.377 OA
ATOM     34  H   UNL     1      -0.501  -9.178  11.355  1.00  0.00     0.212 HD
ENDBRANCH  32  33
BRANCH  32  35
ATOM     35  N   UNL     1       1.888 -10.076  10.584  1.00  0.00    -0.305 NA
ATOM     36  H   UNL     1       1.669 -10.527  11.483  1.00  0.00     0.121 HD
ATOM     37  H   UNL     1       1.832 -10.774   9.828  1.00  0.00     0.121 HD
ENDBRANCH  32  35
ENDBRANCH  28  32
ENDBRANCH  24  27
ENDBRANCH   1  24
TORSDOF 10
ENDMDL
MODEL 7
REMARK VINA RESULT:    -7.952      2.518      3.753
REMARK INTER + INTRA:         -13.081
REMARK INTER:                 -12.263
REMARK INTRA:                  -0.819
REMARK UNBOUND:                -1.177
REMARK SMILES C[C@H]1N[C@@H](N[C@@H](O)N2CCC[C@H]2[C@@H](N)O)S[C@@H]1[C@H]1CCN[C@H](C(C)(C)C(F)(F)F)C1
REMARK SMILES IDX 5 1 4 3 2 4 17 5 3 6 16 7 1 8 18 10 19 11 30 12 20 13 22 14
REMARK SMILES IDX 21 15 23 17 24 18 25 19 26 20 27 21 28 22 29 23 6 24 7 25
REMARK SMILES IDX 8 27 12 28 9 29 11 30 10 31 13 32 15 33 14 35
REMARK H PARENT 5 2 3 9 21 16 7 26 15 34 14 36 14 37
ROOT
ATOM      1  N   UNL     1       0.453  -8.528  11.951  1.00  0.00    -0.255 NA
ATOM      2  H   UNL     1       0.869  -7.587  12.003  1.00  0.00     0.129 HD
ENDROOT
BRANCH   1   3
ATOM      3  C   UNL     1      -0.031  -8.791  13.219  1.00  0.00     0.185 C 
ATOM      4  C   UNL     1      -0.980  -9.996  14.813  1.00  0.00     0.066 C 
ATOM      5  C   UNL     1      -0.718  -8.855  15.565  1.00  0.00     0.069 C 
ATOM      6  N   UNL     1      -0.580  -9.946  13.493  1.00  0.00    -0.290 NA
ATOM      7  S   UNL     1       0.036  -7.667  14.529  1.00  0.00    -0.122 SA
ATOM      8  C   UNL     1      -1.624 -11.247  15.314  1.00  0.00     0.025 C 
ATOM      9  H   UNL     1       0.104 -10.696  13.319  1.00  0.00     0.125 HD
BRANCH   5  10
ATOM     10  C   UNL     1      -0.956  -8.461  16.971  1.00  0.00     0.006 C 
ATOM     11  C   UNL     1      -0.695  -7.170  17.416  1.00  0.00     0.020 C 
ATOM     12  C   UNL     1      -1.479  -9.386  17.869  1.00  0.00     0.024 C 
ATOM     13  C   UNL     1      -0.920  -6.870  18.741  1.00  0.00     0.081 C 
ATOM     14  C   UNL     1      -1.692  -8.981  19.195  1.00  0.00     0.068 C 
ATOM     15  N   UNL     1      -1.400  -7.749  19.633  1.00  0.00    -0.313 NA
ATOM     16  H   UNL     1      -0.697  -7.845  20.380  1.00  0.00     0.122 HD
BRANCH  14  17
ATOM     17  C   UNL     1      -2.333  -9.936  20.231  1.00  0.00     0.076 C 
ATOM     18  C   UNL     1      -3.375  -9.204  21.092  1.00  0.00     0.022 C 
ATOM     19  C   UNL     1      -2.995 -11.127  19.517  1.00  0.00     0.022 C 
BRANCH  17  20
ATOM     20  C   UNL     1      -1.190 -10.518  21.240  1.00  0.00     0.395 C 
ATOM     21  F   UNL     1      -1.100 -11.843  21.130  1.00  0.00    -0.170 F 
ATOM     22  F   UNL     1       0.019 -10.026  20.994  1.00  0.00    -0.170 F 
ATOM     23  F   UNL     1      -1.459 -10.239  22.510  1.00  0.00    -0.170 F 
ENDBRANCH  17  20
ENDBRANCH  14  17
ENDBRANCH   5  10
ENDBRANCH   1   3
BRANCH   1  24
ATOM     24  C   UNL     1       1.397  -9.322  11.282  1.00  0.00     0.261 C 
BRANCH  24  25
ATOM     25  O   UNL     1       1.202 -10.509  11.068  1.00  0.00    -0.365 OA
ATOM     26  H   UNL     1       0.619 -10.880  11.777  1.00  0.00     0.214 HD
ENDBRANCH  24  25
BRANCH  24  27
ATOM     27  N   UNL     1       2.564  -8.708  10.870  1.00  0.00    -0.259 NA
ATOM     28  C   UNL     1       2.977  -8.787   9.459  1.00  0.00     0.104 C 
ATOM     29  C   UNL     1       3.507  -7.931  11.690  1.00  0.00     0.089 C 
ATOM     30  C   UNL     1       4.238  -7.910   9.398  1.00  0.00     0.025 C 
ATOM     31  C   UNL     1       4.742  -7.842  10.820  1.00  0.00     0.017 C 
BRANCH  28  32
ATOM     32  C   UNL     1       3.243 -10.215   8.978  1.00  0.00     0.197 C 
BRANCH  32  33
ATOM     33  O   UNL     1       3.861 -11.007   9.694  1.00  0.00    -0.377 OA
ATOM     34  H   UNL     1       3.283 -11.784   9.900  1.00  0.00     0.212 HD
ENDBRANCH  32  33
BRANCH  32  35
ATOM     35  N   UNL     1       2.845 -10.512   7.751  1.00  0.00    -0.305 NA
ATOM     36  H   UNL     1       2.112 -11.233   7.794  1.00  0.00     0.121 HD
ATOM     37  H   UNL     1       2.469  -9.667   7.298  1.00  0.00     0.121 HD
ENDBRANCH  32  35
ENDBRANCH  28  32
ENDBRANCH  24  27
ENDBRANCH   1  24
TORSDOF 10
ENDMDL
MODEL 8
REMARK VINA RESULT:    -7.900      2.373      3.528
REMARK INTER + INTRA:         -13.003
REMARK INTER:                 -11.740
REMARK INTRA:                  -1.263
REMARK UNBOUND:                -1.177
REMARK SMILES C[C@H]1N[C@@H](N[C@@H](O)N2CCC[C@H]2[C@@H](N)O)S[C@@H]1[C@H]1CCN[C@H](C(C)(C)C(F)(F)F)C1
REMARK SMILES IDX 5 1 4 3 2 4 17 5 3 6 16 7 1 8 18 10 19 11 30 12 20 13 22 14
REMARK SMILES IDX 21 15 23 17 24 18 25 19 26 20 27 21 28 22 29 23 6 24 7 25
REMARK SMILES IDX 8 27 12 28 9 29 11 30 10 31 13 32 15 33 14 35
REMARK H PARENT 5 2 3 9 21 16 7 26 15 34 14 36 14 37
ROOT
ATOM      1  N   UNL     1       1.349  -6.600  14.408  1.00  0.00    -0.255 NA
ATOM      2  H   UNL     1       2.244  -7.102  14.497  1.00  0.00     0.129 HD
ENDROOT
BRANCH   1   3
ATOM      3  C   UNL     1       0.498  -7.194  15.321  1.00  0.00     0.185 C 
ATOM      4  C   UNL     1      -0.927  -8.712  16.069  1.00  0.00     0.066 C 
ATOM      5  C   UNL     1      -0.864  -7.926  17.216  1.00  0.00     0.069 C 
ATOM      6  N   UNL     1      -0.148  -8.289  15.011  1.00  0.00    -0.290 NA
ATOM      7  S   UNL     1       0.206  -6.579  16.909  1.00  0.00    -0.122 SA
ATOM      8  C   UNL     1      -1.734  -9.959  15.905  1.00  0.00     0.025 C 
ATOM      9  H   UNL     1       0.531  -9.027  14.776  1.00  0.00     0.125 HD
BRANCH   5  10
ATOM     10  C   UNL     1      -1.500  -7.984  18.550  1.00  0.00     0.006 C 
ATOM     11  C   UNL     1      -1.855  -6.827  19.234  1.00  0.00     0.020 C 
ATOM     12  C   UNL     1      -1.779  -9.218  19.131  1.00  0.00     0.024 C 
ATOM     13  C   UNL     1      -2.427  -6.947  20.482  1.00  0.00     0.081 C 
ATOM     14  C   UNL     1      -2.382  -9.238  20.397  1.00  0.00     0.068 C 
ATOM     15  N   UNL     1      -2.685  -8.122  21.074  1.00  0.00    -0.313 NA
ATOM     16  H   UNL     1      -2.156  -8.144  21.957  1.00  0.00     0.122 HD
BRANCH  14  17
ATOM     17  C   UNL     1      -2.781 -10.572  21.072  1.00  0.00     0.076 C 
ATOM     18  C   UNL     1      -1.756 -11.677  20.771  1.00  0.00     0.022 C 
ATOM     19  C   UNL     1      -2.904 -10.380  22.594  1.00  0.00     0.022 C 
BRANCH  17  20
ATOM     20  C   UNL     1      -4.224 -11.079  20.504  1.00  0.00     0.395 C 
ATOM     21  F   UNL     1      -5.194 -10.245  20.879  1.00  0.00    -0.170 F 
ATOM     22  F   UNL     1      -4.264 -11.150  19.179  1.00  0.00    -0.170 F 
ATOM     23  F   UNL     1      -4.539 -12.288  20.955  1.00  0.00    -0.170 F 
ENDBRANCH  17  20
ENDBRANCH  14  17
ENDBRANCH   5  10
ENDBRANCH   1   3
BRANCH   1  24
ATOM     24  C   UNL     1       1.098  -6.514  13.030  1.00  0.00     0.261 C 
BRANCH  24  25
ATOM     25  O   UNL     1       0.106  -5.952  12.592  1.00  0.00    -0.365 OA
ATOM     26  H   UNL     1      -0.354  -6.549  11.949  1.00  0.00     0.214 HD
ENDBRANCH  24  25
BRANCH  24  27
ATOM     27  N   UNL     1       2.022  -7.091  12.180  1.00  0.00    -0.259 NA
ATOM     28  C   UNL     1       1.566  -7.924  11.055  1.00  0.00     0.104 C 
ATOM     29  C   UNL     1       3.488  -6.975  12.236  1.00  0.00     0.089 C 
ATOM     30  C   UNL     1       2.864  -8.277  10.312  1.00  0.00     0.025 C 
ATOM     31  C   UNL     1       3.966  -8.087  11.328  1.00  0.00     0.017 C 
BRANCH  28  32
ATOM     32  C   UNL     1       0.792  -9.170  11.491  1.00  0.00     0.197 C 
BRANCH  32  33
ATOM     33  O   UNL     1       1.259 -10.294  11.290  1.00  0.00    -0.377 OA
ATOM     34  H   UNL     1       2.182 -10.210  10.943  1.00  0.00     0.212 HD
ENDBRANCH  32  33
BRANCH  32  35
ATOM     35  N   UNL     1      -0.408  -8.971  12.013  1.00  0.00    -0.305 NA
ATOM     36  H   UNL     1      -0.503  -7.984  12.289  1.00  0.00     0.121 HD
ATOM     37  H   UNL     1      -1.129  -9.203  11.315  1.00  0.00     0.121 HD
ENDBRANCH  32  35
ENDBRANCH  28  32
ENDBRANCH  24  27
ENDBRANCH   1  24
TORSDOF 10
ENDMDL
MODEL 9
REMARK VINA RESULT:    -7.869      2.205      3.539
REMARK INTER + INTRA:         -12.957
REMARK INTER:                 -11.745
REMARK INTRA:                  -1.212
REMARK UNBOUND:                -1.177
REMARK SMILES C[C@H]1N[C@@H](N[C@@H](O)N2CCC[C@H]2[C@@H](N)O)S[C@@H]1[C@H]1CCN[C@H](C(C)(C)C(F)(F)F)C1
REMARK SMILES IDX 5 1 4 3 2 4 17 5 3 6 16 7 1 8 18 10 19 11 30 12 20 13 22 14
REMARK SMILES IDX 21 15 23 17 24 18 25 19 26 20 27 21 28 22 29 23 6 24 7 25
REMARK SMILES IDX 8 27 12 28 9 29 11 30 10 31 13 32 15 33 14 35
REMARK H PARENT 5 2 3 9 21 16 7 26 15 34 14 36 14 37
ROOT
ATOM      1  N   UNL     1       0.949  -6.910  12.735  1.00  0.00    -0.255 NA
ATOM      2  H   UNL     1       0.767  -5.898  12.800  1.00  0.00     0.129 HD
ENDROOT
BRANCH   1   3
ATOM      3  C   UNL     1       0.336  -7.470  13.839  1.00  0.00     0.185 C 
ATOM      4  C   UNL     1      -0.575  -9.084  15.047  1.00  0.00     0.066 C 
ATOM      5  C   UNL     1      -0.690  -8.058  15.980  1.00  0.00     0.069 C 
ATOM      6  N   UNL     1       0.012  -8.738  13.847  1.00  0.00    -0.290 NA
ATOM      7  S   UNL     1      -0.054  -6.591  15.274  1.00  0.00    -0.122 SA
ATOM      8  C   UNL     1      -1.006 -10.501  15.245  1.00  0.00     0.025 C 
ATOM      9  H   UNL     1       0.861  -9.304  13.710  1.00  0.00     0.125 HD
BRANCH   5  10
ATOM     10  C   UNL     1      -1.232  -7.959  17.353  1.00  0.00     0.006 C 
ATOM     11  C   UNL     1      -1.366  -6.732  17.993  1.00  0.00     0.020 C 
ATOM     12  C   UNL     1      -1.644  -9.110  18.018  1.00  0.00     0.024 C 
ATOM     13  C   UNL     1      -1.859  -6.708  19.279  1.00  0.00     0.081 C 
ATOM     14  C   UNL     1      -2.152  -8.982  19.319  1.00  0.00     0.068 C 
ATOM     15  N   UNL     1      -2.241  -7.803  19.951  1.00  0.00    -0.313 NA
ATOM     16  H   UNL     1      -1.660  -7.863  20.799  1.00  0.00     0.122 HD
BRANCH  14  17
ATOM     17  C   UNL     1      -2.691 -10.209  20.093  1.00  0.00     0.076 C 
ATOM     18  C   UNL     1      -3.910  -9.835  20.951  1.00  0.00     0.022 C 
ATOM     19  C   UNL     1      -3.074 -11.330  19.110  1.00  0.00     0.022 C 
BRANCH  17  20
ATOM     20  C   UNL     1      -1.544 -10.786  21.101  1.00  0.00     0.395 C 
ATOM     21  F   UNL     1      -1.293 -12.068  20.840  1.00  0.00    -0.170 F 
ATOM     22  F   UNL     1      -0.391 -10.136  21.001  1.00  0.00    -0.170 F 
ATOM     23  F   UNL     1      -1.914 -10.701  22.374  1.00  0.00    -0.170 F 
ENDBRANCH  17  20
ENDBRANCH  14  17
ENDBRANCH   5  10
ENDBRANCH   1   3
BRANCH   1  24
ATOM     24  C   UNL     1       2.316  -7.030  12.441  1.00  0.00     0.261 C 
BRANCH  24  25
ATOM     25  O   UNL     1       3.166  -7.006  13.318  1.00  0.00    -0.365 OA
ATOM     26  H   UNL     1       3.299  -6.073  13.623  1.00  0.00     0.214 HD
ENDBRANCH  24  25
BRANCH  24  27
ATOM     27  N   UNL     1       2.669  -7.177  11.113  1.00  0.00    -0.259 NA
ATOM     28  C   UNL     1       1.685  -7.683  10.142  1.00  0.00     0.104 C 
ATOM     29  C   UNL     1       3.967  -6.871  10.491  1.00  0.00     0.089 C 
ATOM     30  C   UNL     1       2.423  -7.599   8.797  1.00  0.00     0.025 C 
ATOM     31  C   UNL     1       3.891  -7.570   9.151  1.00  0.00     0.017 C 
BRANCH  28  32
ATOM     32  C   UNL     1       1.199  -9.102  10.447  1.00  0.00     0.197 C 
BRANCH  32  33
ATOM     33  O   UNL     1       1.993 -10.047  10.437  1.00  0.00    -0.377 OA
ATOM     34  H   UNL     1       1.490 -10.900  10.444  1.00  0.00     0.212 HD
ENDBRANCH  32  33
BRANCH  32  35
ATOM     35  N   UNL     1      -0.101  -9.255  10.642  1.00  0.00    -0.305 NA
ATOM     36  H   UNL     1      -0.276 -10.168  11.085  1.00  0.00     0.121 HD
ATOM     37  H   UNL     1      -0.447  -8.504  11.255  1.00  0.00     0.121 HD
ENDBRANCH  32  35
ENDBRANCH  28  32
ENDBRANCH  24  27
ENDBRANCH   1  24
TORSDOF 10
ENDMDL
MODEL 10
REMARK VINA RESULT:    -7.706      3.395      5.179
REMARK INTER + INTRA:         -12.713
REMARK INTER:                 -11.927
REMARK INTRA:                  -0.786
REMARK UNBOUND:                -1.177
REMARK SMILES C[C@H]1N[C@@H](N[C@@H](O)N2CCC[C@H]2[C@@H](N)O)S[C@@H]1[C@H]1CCN[C@H](C(C)(C)C(F)(F)F)C1
REMARK SMILES IDX 5 1 4 3 2 4 17 5 3 6 16 7 1 8 18 10 19 11 30 12 20 13 22 14
REMARK SMILES IDX 21 15 23 17 24 18 25 19 26 20 27 21 28 22 29 23 6 24 7 25
REMARK SMILES IDX 8 27 12 28 9 29 11 30 10 31 13 32 15 33 14 35
REMARK H PARENT 5 2 3 9 21 16 7 26 15 34 14 36 14 37
ROOT
ATOM      1  N   UNL     1       1.356  -6.606  12.296  1.00  0.00    -0.255 NA
ATOM      2  H   UNL     1       1.411  -5.592  12.123  1.00  0.00     0.129 HD
ENDROOT
BRANCH   1   3
ATOM      3  C   UNL     1       0.705  -6.742  13.507  1.00  0.00     0.185 C 
ATOM      4  C   UNL     1      -0.160  -6.064  15.427  1.00  0.00     0.066 C 
ATOM      5  C   UNL     1      -0.506  -7.408  15.525  1.00  0.00     0.069 C 
ATOM      6  N   UNL     1       0.516  -5.703  14.280  1.00  0.00    -0.290 NA
ATOM      7  S   UNL     1       0.092  -8.241  14.109  1.00  0.00    -0.122 SA
ATOM      8  C   UNL     1      -0.476  -5.003  16.430  1.00  0.00     0.025 C 
ATOM      9  H   UNL     1      -0.035  -4.998  13.770  1.00  0.00     0.125 HD
BRANCH   5  10
ATOM     10  C   UNL     1      -1.212  -8.228  16.535  1.00  0.00     0.006 C 
ATOM     11  C   UNL     1      -1.453  -7.748  17.817  1.00  0.00     0.020 C 
ATOM     12  C   UNL     1      -1.673  -9.496  16.196  1.00  0.00     0.024 C 
ATOM     13  C   UNL     1      -2.099  -8.567  18.718  1.00  0.00     0.081 C 
ATOM     14  C   UNL     1      -2.337 -10.247  17.176  1.00  0.00     0.068 C 
ATOM     15  N   UNL     1      -2.532  -9.801  18.425  1.00  0.00    -0.313 NA
ATOM     16  H   UNL     1      -2.056 -10.454  19.064  1.00  0.00     0.122 HD
BRANCH  14  17
ATOM     17  C   UNL     1      -2.936 -11.638  16.851  1.00  0.00     0.076 C 
ATOM     18  C   UNL     1      -1.839 -12.712  16.778  1.00  0.00     0.022 C 
ATOM     19  C   UNL     1      -3.975 -12.030  17.916  1.00  0.00     0.022 C 
BRANCH  17  20
ATOM     20  C   UNL     1      -3.681 -11.602  15.400  1.00  0.00     0.395 C 
ATOM     21  F   UNL     1      -4.499 -10.553  15.320  1.00  0.00    -0.170 F 
ATOM     22  F   UNL     1      -2.833 -11.512  14.383  1.00  0.00    -0.170 F 
ATOM     23  F   UNL     1      -4.408 -12.694  15.188  1.00  0.00    -0.170 F 
ENDBRANCH  17  20
ENDBRANCH  14  17
ENDBRANCH   5  10
ENDBRANCH   1   3
BRANCH   1  24
ATOM     24  C   UNL     1       2.638  -7.107  12.024  1.00  0.00     0.261 C 
BRANCH  24  25
ATOM     25  O   UNL     1       3.497  -7.177  12.890  1.00  0.00    -0.365 OA
ATOM     26  H   UNL     1       3.171  -6.736  13.715  1.00  0.00     0.214 HD
ENDBRANCH  24  25
BRANCH  24  27
ATOM     27  N   UNL     1       2.897  -7.521  10.732  1.00  0.00    -0.259 NA
ATOM     28  C   UNL     1       1.796  -7.992   9.876  1.00  0.00     0.104 C 
ATOM     29  C   UNL     1       4.197  -7.551  10.043  1.00  0.00     0.089 C 
ATOM     30  C   UNL     1       2.472  -8.252   8.520  1.00  0.00     0.025 C 
ATOM     31  C   UNL     1       3.939  -8.427   8.837  1.00  0.00     0.017 C 
BRANCH  28  32
ATOM     32  C   UNL     1       1.089  -9.236  10.417  1.00  0.00     0.197 C 
BRANCH  32  33
ATOM     33  O   UNL     1      -0.133  -9.232  10.587  1.00  0.00    -0.377 OA
ATOM     34  H   UNL     1      -0.576  -9.649   9.806  1.00  0.00     0.212 HD
ENDBRANCH  32  33
BRANCH  32  35
ATOM     35  N   UNL     1       1.860 -10.258  10.751  1.00  0.00    -0.305 NA
ATOM     36  H   UNL     1       2.440 -10.000  11.561  1.00  0.00     0.121 HD
ATOM     37  H   UNL     1       1.271 -11.068  10.995  1.00  0.00     0.121 HD
ENDBRANCH  32  35
ENDBRANCH  28  32
ENDBRANCH  24  27
ENDBRANCH   1  24
TORSDOF 10
ENDMDL
MODEL 11
REMARK VINA RESULT:    -7.624      3.396      4.327
REMARK INTER + INTRA:         -12.591
REMARK INTER:                 -11.404
REMARK INTRA:                  -1.187
REMARK UNBOUND:                -1.177
REMARK SMILES C[C@H]1N[C@@H](N[C@@H](O)N2CCC[C@H]2[C@@H](N)O)S[C@@H]1[C@H]1CCN[C@H](C(C)(C)C(F)(F)F)C1
REMARK SMILES IDX 5 1 4 3 2 4 17 5 3 6 16 7 1 8 18 10 19 11 30 12 20 13 22 14
REMARK SMILES IDX 21 15 23 17 24 18 25 19 26 20 27 21 28 22 29 23 6 24 7 25
REMARK SMILES IDX 8 27 12 28 9 29 11 30 10 31 13 32 15 33 14 35
REMARK H PARENT 5 2 3 9 21 16 7 26 15 34 14 36 14 37
ROOT
ATOM      1  N   UNL     1       0.698  -8.092  12.194  1.00  0.00    -0.255 NA
ATOM      2  H   UNL     1       1.642  -7.760  12.438  1.00  0.00     0.129 HD
ENDROOT
BRANCH   1   3
ATOM      3  C   UNL     1       0.122  -8.486  13.386  1.00  0.00     0.185 C 
ATOM      4  C   UNL     1      -0.892  -9.868  14.785  1.00  0.00     0.066 C 
ATOM      5  C   UNL     1      -0.761  -8.785  15.647  1.00  0.00     0.069 C 
ATOM      6  N   UNL     1      -0.383  -9.687  13.515  1.00  0.00    -0.290 NA
ATOM      7  S   UNL     1       0.011  -7.476  14.783  1.00  0.00    -0.122 SA
ATOM      8  C   UNL     1      -1.504 -11.189  15.123  1.00  0.00     0.025 C 
ATOM      9  H   UNL     1       0.356 -10.384  13.344  1.00  0.00     0.125 HD
BRANCH   5  10
ATOM     10  C   UNL     1      -1.142  -8.524  17.053  1.00  0.00     0.006 C 
ATOM     11  C   UNL     1      -1.644  -9.535  17.867  1.00  0.00     0.020 C 
ATOM     12  C   UNL     1      -0.973  -7.252  17.592  1.00  0.00     0.024 C 
ATOM     13  C   UNL     1      -1.998  -9.225  19.161  1.00  0.00     0.081 C 
ATOM     14  C   UNL     1      -1.345  -7.039  18.927  1.00  0.00     0.068 C 
ATOM     15  N   UNL     1      -1.868  -8.003  19.697  1.00  0.00    -0.313 NA
ATOM     16  H   UNL     1      -2.807  -7.692  19.986  1.00  0.00     0.122 HD
BRANCH  14  17
ATOM     17  C   UNL     1      -1.123  -5.668  19.611  1.00  0.00     0.076 C 
ATOM     18  C   UNL     1      -1.198  -5.792  21.141  1.00  0.00     0.022 C 
ATOM     19  C   UNL     1       0.243  -5.087  19.205  1.00  0.00     0.022 C 
BRANCH  17  20
ATOM     20  C   UNL     1      -2.282  -4.616  19.150  1.00  0.00     0.395 C 
ATOM     21  F   UNL     1      -2.717  -3.912  20.194  1.00  0.00    -0.170 F 
ATOM     22  F   UNL     1      -1.860  -3.745  18.241  1.00  0.00    -0.170 F 
ATOM     23  F   UNL     1      -3.331  -5.235  18.619  1.00  0.00    -0.170 F 
ENDBRANCH  17  20
ENDBRANCH  14  17
ENDBRANCH   5  10
ENDBRANCH   1   3
BRANCH   1  24
ATOM     24  C   UNL     1       0.869  -8.929  11.081  1.00  0.00     0.261 C 
BRANCH  24  25
ATOM     25  O   UNL     1      -0.080  -9.313  10.414  1.00  0.00    -0.365 OA
ATOM     26  H   UNL     1       0.145  -9.250   9.452  1.00  0.00     0.214 HD
ENDBRANCH  24  25
BRANCH  24  27
ATOM     27  N   UNL     1       2.159  -9.307  10.763  1.00  0.00    -0.259 NA
ATOM     28  C   UNL     1       3.251  -8.321  10.824  1.00  0.00     0.104 C 
ATOM     29  C   UNL     1       2.628 -10.641  10.356  1.00  0.00     0.089 C 
ATOM     30  C   UNL     1       4.507  -9.148  10.509  1.00  0.00     0.025 C 
ATOM     31  C   UNL     1       4.004 -10.374   9.785  1.00  0.00     0.017 C 
BRANCH  28  32
ATOM     32  C   UNL     1       3.071  -7.150   9.857  1.00  0.00     0.197 C 
BRANCH  32  33
ATOM     33  O   UNL     1       3.366  -7.276   8.665  1.00  0.00    -0.377 OA
ATOM     34  H   UNL     1       3.423  -6.383   8.243  1.00  0.00     0.212 HD
ENDBRANCH  32  33
BRANCH  32  35
ATOM     35  N   UNL     1       2.663  -6.005  10.380  1.00  0.00    -0.305 NA
ATOM     36  H   UNL     1       3.323  -5.257  10.126  1.00  0.00     0.121 HD
ATOM     37  H   UNL     1       1.727  -5.775  10.017  1.00  0.00     0.121 HD
ENDBRANCH  32  35
ENDBRANCH  28  32
ENDBRANCH  24  27
ENDBRANCH   1  24
TORSDOF 10
ENDMDL
MODEL 12
REMARK VINA RESULT:    -7.588      2.740      4.147
REMARK INTER + INTRA:         -12.536
REMARK INTER:                 -11.969
REMARK INTRA:                  -0.567
REMARK UNBOUND:                -1.177
REMARK SMILES C[C@H]1N[C@@H](N[C@@H](O)N2CCC[C@H]2[C@@H](N)O)S[C@@H]1[C@H]1CCN[C@H](C(C)(C)C(F)(F)F)C1
REMARK SMILES IDX 5 1 4 3 2 4 17 5 3 6 16 7 1 8 18 10 19 11 30 12 20 13 22 14
REMARK SMILES IDX 21 15 23 17 24 18 25 19 26 20 27 21 28 22 29 23 6 24 7 25
REMARK SMILES IDX 8 27 12 28 9 29 11 30 10 31 13 32 15 33 14 35
REMARK H PARENT 5 2 3 9 21 16 7 26 15 34 14 36 14 37
ROOT
ATOM      1  N   UNL     1       0.371  -9.709  11.872  1.00  0.00    -0.255 NA
ATOM      2  H   UNL     1      -0.565  -9.993  11.547  1.00  0.00     0.129 HD
ENDROOT
BRANCH   1   3
ATOM      3  C   UNL     1       0.168  -9.070  13.080  1.00  0.00     0.185 C 
ATOM      4  C   UNL     1       0.330  -7.428  14.553  1.00  0.00     0.066 C 
ATOM      5  C   UNL     1      -0.448  -8.293  15.315  1.00  0.00     0.069 C 
ATOM      6  N   UNL     1       0.663  -7.878  13.292  1.00  0.00    -0.290 NA
ATOM      7  S   UNL     1      -0.730  -9.749  14.390  1.00  0.00    -0.122 SA
ATOM      8  C   UNL     1       0.802  -6.074  14.973  1.00  0.00     0.025 C 
ATOM      9  H   UNL     1       0.286  -7.225  12.590  1.00  0.00     0.125 HD
BRANCH   5  10
ATOM     10  C   UNL     1      -1.029  -8.243  16.676  1.00  0.00     0.006 C 
ATOM     11  C   UNL     1      -1.037  -7.066  17.416  1.00  0.00     0.020 C 
ATOM     12  C   UNL     1      -1.605  -9.384  17.225  1.00  0.00     0.024 C 
ATOM     13  C   UNL     1      -1.575  -7.088  18.684  1.00  0.00     0.081 C 
ATOM     14  C   UNL     1      -2.145  -9.302  18.516  1.00  0.00     0.068 C 
ATOM     15  N   UNL     1      -2.115  -8.178  19.246  1.00  0.00    -0.313 NA
ATOM     16  H   UNL     1      -1.580  -8.381  20.102  1.00  0.00     0.122 HD
BRANCH  14  17
ATOM     17  C   UNL     1      -2.861 -10.513  19.163  1.00  0.00     0.076 C 
ATOM     18  C   UNL     1      -1.878 -11.374  19.971  1.00  0.00     0.022 C 
ATOM     19  C   UNL     1      -4.000 -10.029  20.078  1.00  0.00     0.022 C 
BRANCH  17  20
ATOM     20  C   UNL     1      -3.507 -11.466  18.006  1.00  0.00     0.395 C 
ATOM     21  F   UNL     1      -4.517 -12.181  18.500  1.00  0.00    -0.170 F 
ATOM     22  F   UNL     1      -3.985 -10.779  16.975  1.00  0.00    -0.170 F 
ATOM     23  F   UNL     1      -2.617 -12.318  17.511  1.00  0.00    -0.170 F 
ENDBRANCH  17  20
ENDBRANCH  14  17
ENDBRANCH   5  10
ENDBRANCH   1   3
BRANCH   1  24
ATOM     24  C   UNL     1       0.995  -9.124  10.760  1.00  0.00     0.261 C 
BRANCH  24  25
ATOM     25  O   UNL     1       0.353  -8.571   9.880  1.00  0.00    -0.365 OA
ATOM     26  H   UNL     1       0.823  -7.746   9.597  1.00  0.00     0.214 HD
ENDBRANCH  24  25
BRANCH  24  27
ATOM     27  N   UNL     1       2.374  -9.195  10.695  1.00  0.00    -0.259 NA
ATOM     28  C   UNL     1       3.191  -8.059  11.152  1.00  0.00     0.104 C 
ATOM     29  C   UNL     1       3.192 -10.319  10.214  1.00  0.00     0.089 C 
ATOM     30  C   UNL     1       4.634  -8.568  11.015  1.00  0.00     0.025 C 
ATOM     31  C   UNL     1       4.561  -9.703  10.021  1.00  0.00     0.017 C 
BRANCH  28  32
ATOM     32  C   UNL     1       2.953  -6.775  10.355  1.00  0.00     0.197 C 
BRANCH  32  33
ATOM     33  O   UNL     1       2.907  -5.684  10.932  1.00  0.00    -0.377 OA
ATOM     34  H   UNL     1       2.113  -5.181  10.622  1.00  0.00     0.212 HD
ENDBRANCH  32  33
BRANCH  32  35
ATOM     35  N   UNL     1       2.733  -6.913   9.058  1.00  0.00    -0.305 NA
ATOM     36  H   UNL     1       2.920  -7.887   8.780  1.00  0.00     0.121 HD
ATOM     37  H   UNL     1       1.752  -6.679   8.849  1.00  0.00     0.121 HD
ENDBRANCH  32  35
ENDBRANCH  28  32
ENDBRANCH  24  27
ENDBRANCH   1  24
TORSDOF 10
ENDMDL
MODEL 13
REMARK VINA RESULT:    -7.584      2.631      4.252
REMARK INTER + INTRA:         -12.530
REMARK INTER:                 -11.935
REMARK INTRA:                  -0.595
REMARK UNBOUND:                -1.177
REMARK SMILES C[C@H]1N[C@@H](N[C@@H](O)N2CCC[C@H]2[C@@H](N)O)S[C@@H]1[C@H]1CCN[C@H](C(C)(C)C(F)(F)F)C1
REMARK SMILES IDX 5 1 4 3 2 4 17 5 3 6 16 7 1 8 18 10 19 11 30 12 20 13 22 14
REMARK SMILES IDX 21 15 23 17 24 18 25 19 26 20 27 21 28 22 29 23 6 24 7 25
REMARK SMILES IDX 8 27 12 28 9 29 11 30 10 31 13 32 15 33 14 35
REMARK H PARENT 5 2 3 9 21 16 7 26 15 34 14 36 14 37
ROOT
ATOM      1  N   UNL     1       1.164  -7.284  13.856  1.00  0.00    -0.255 NA
ATOM      2  H   UNL     1       0.965  -8.279  13.680  1.00  0.00     0.129 HD
ENDROOT
BRANCH   1   3
ATOM      3  C   UNL     1       0.481  -6.968  15.015  1.00  0.00     0.185 C 
ATOM      4  C   UNL     1      -0.496  -5.641  16.492  1.00  0.00     0.066 C 
ATOM      5  C   UNL     1      -0.753  -6.854  17.124  1.00  0.00     0.069 C 
ATOM      6  N   UNL     1       0.195  -5.724  15.299  1.00  0.00    -0.290 NA
ATOM      7  S   UNL     1      -0.050  -8.138  16.170  1.00  0.00    -0.122 SA
ATOM      8  C   UNL     1      -0.919  -4.293  16.977  1.00  0.00     0.025 C 
ATOM      9  H   UNL     1      -0.385  -5.329  14.545  1.00  0.00     0.125 HD
BRANCH   5  10
ATOM     10  C   UNL     1      -1.437  -7.247  18.376  1.00  0.00     0.006 C 
ATOM     11  C   UNL     1      -1.680  -6.326  19.389  1.00  0.00     0.020 C 
ATOM     12  C   UNL     1      -1.874  -8.558  18.542  1.00  0.00     0.024 C 
ATOM     13  C   UNL     1      -2.304  -6.759  20.538  1.00  0.00     0.081 C 
ATOM     14  C   UNL     1      -2.518  -8.898  19.741  1.00  0.00     0.068 C 
ATOM     15  N   UNL     1      -2.714  -8.020  20.734  1.00  0.00    -0.313 NA
ATOM     16  H   UNL     1      -2.222  -8.379  21.564  1.00  0.00     0.122 HD
BRANCH  14  17
ATOM     17  C   UNL     1      -3.091 -10.318  19.967  1.00  0.00     0.076 C 
ATOM     18  C   UNL     1      -2.064 -11.229  20.659  1.00  0.00     0.022 C 
ATOM     19  C   UNL     1      -4.373 -10.245  20.815  1.00  0.00     0.022 C 
BRANCH  17  20
ATOM     20  C   UNL     1      -3.466 -11.007  18.535  1.00  0.00     0.395 C 
ATOM     21  F   UNL     1      -3.883 -10.085  17.668  1.00  0.00    -0.170 F 
ATOM     22  F   UNL     1      -2.436 -11.630  17.974  1.00  0.00    -0.170 F 
ATOM     23  F   UNL     1      -4.432 -11.910  18.656  1.00  0.00    -0.170 F 
ENDBRANCH  17  20
ENDBRANCH  14  17
ENDBRANCH   5  10
ENDBRANCH   1   3
BRANCH   1  24
ATOM     24  C   UNL     1       0.978  -6.637  12.625  1.00  0.00     0.261 C 
BRANCH  24  25
ATOM     25  O   UNL     1       0.028  -5.893  12.427  1.00  0.00    -0.365 OA
ATOM     26  H   UNL     1      -0.792  -6.433  12.297  1.00  0.00     0.214 HD
ENDBRANCH  24  25
BRANCH  24  27
ATOM     27  N   UNL     1       1.914  -6.872  11.637  1.00  0.00    -0.259 NA
ATOM     28  C   UNL     1       1.513  -7.540  10.388  1.00  0.00     0.104 C 
ATOM     29  C   UNL     1       3.342  -6.518  11.651  1.00  0.00     0.089 C 
ATOM     30  C   UNL     1       2.790  -7.515   9.533  1.00  0.00     0.025 C 
ATOM     31  C   UNL     1       3.922  -7.335  10.518  1.00  0.00     0.017 C 
BRANCH  28  32
ATOM     32  C   UNL     1       0.985  -8.961  10.597  1.00  0.00     0.197 C 
BRANCH  32  33
ATOM     33  O   UNL     1      -0.211  -9.212  10.420  1.00  0.00    -0.377 OA
ATOM     34  H   UNL     1      -0.342  -9.560   9.503  1.00  0.00     0.212 HD
ENDBRANCH  32  33
BRANCH  32  35
ATOM     35  N   UNL     1       1.852  -9.858  11.038  1.00  0.00    -0.305 NA
ATOM     36  H   UNL     1       1.710 -10.005  12.047  1.00  0.00     0.121 HD
ATOM     37  H   UNL     1       1.711 -10.747  10.538  1.00  0.00     0.121 HD
ENDBRANCH  32  35
ENDBRANCH  28  32
ENDBRANCH  24  27
ENDBRANCH   1  24
TORSDOF 10
ENDMDL
MODEL 14
REMARK VINA RESULT:    -7.579      1.840      3.011
REMARK INTER + INTRA:         -12.522
REMARK INTER:                 -11.372
REMARK INTRA:                  -1.150
REMARK UNBOUND:                -1.177
REMARK SMILES C[C@H]1N[C@@H](N[C@@H](O)N2CCC[C@H]2[C@@H](N)O)S[C@@H]1[C@H]1CCN[C@H](C(C)(C)C(F)(F)F)C1
REMARK SMILES IDX 5 1 4 3 2 4 17 5 3 6 16 7 1 8 18 10 19 11 30 12 20 13 22 14
REMARK SMILES IDX 21 15 23 17 24 18 25 19 26 20 27 21 28 22 29 23 6 24 7 25
REMARK SMILES IDX 8 27 12 28 9 29 11 30 10 31 13 32 15 33 14 35
REMARK H PARENT 5 2 3 9 21 16 7 26 15 34 14 36 14 37
ROOT
ATOM      1  N   UNL     1       0.269  -8.316  13.604  1.00  0.00    -0.255 NA
ATOM      2  H   UNL     1      -0.304  -8.794  12.894  1.00  0.00     0.129 HD
ENDROOT
BRANCH   1   3
ATOM      3  C   UNL     1      -0.354  -8.565  14.812  1.00  0.00     0.185 C 
ATOM      4  C   UNL     1      -1.676  -9.638  16.225  1.00  0.00     0.066 C 
ATOM      5  C   UNL     1      -1.202  -8.669  17.104  1.00  0.00     0.069 C 
ATOM      6  N   UNL     1      -1.182  -9.570  14.938  1.00  0.00    -0.290 NA
ATOM      7  S   UNL     1      -0.113  -7.614  16.234  1.00  0.00    -0.122 SA
ATOM      8  C   UNL     1      -2.635 -10.733  16.562  1.00  0.00     0.025 C 
ATOM      9  H   UNL     1      -0.687 -10.446  14.719  1.00  0.00     0.125 HD
BRANCH   5  10
ATOM     10  C   UNL     1      -1.440  -8.356  18.530  1.00  0.00     0.006 C 
ATOM     11  C   UNL     1      -1.755  -7.067  18.947  1.00  0.00     0.020 C 
ATOM     12  C   UNL     1      -1.376  -9.370  19.481  1.00  0.00     0.024 C 
ATOM     13  C   UNL     1      -1.946  -6.836  20.291  1.00  0.00     0.081 C 
ATOM     14  C   UNL     1      -1.605  -9.040  20.824  1.00  0.00     0.068 C 
ATOM     15  N   UNL     1      -1.867  -7.790  21.230  1.00  0.00    -0.313 NA
ATOM     16  H   UNL     1      -1.121  -7.516  21.886  1.00  0.00     0.122 HD
BRANCH  14  17
ATOM     17  C   UNL     1      -1.617 -10.128  21.925  1.00  0.00     0.076 C 
ATOM     18  C   UNL     1      -2.804  -9.937  22.884  1.00  0.00     0.022 C 
ATOM     19  C   UNL     1      -1.686 -11.527  21.289  1.00  0.00     0.022 C 
BRANCH  17  20
ATOM     20  C   UNL     1      -0.253 -10.040  22.816  1.00  0.00     0.395 C 
ATOM     21  F   UNL     1      -0.386  -9.139  23.788  1.00  0.00    -0.170 F 
ATOM     22  F   UNL     1       0.065 -11.192  23.395  1.00  0.00    -0.170 F 
ATOM     23  F   UNL     1       0.797  -9.685  22.083  1.00  0.00    -0.170 F 
ENDBRANCH  17  20
ENDBRANCH  14  17
ENDBRANCH   5  10
ENDBRANCH   1   3
BRANCH   1  24
ATOM     24  C   UNL     1       0.519  -7.035  13.090  1.00  0.00     0.261 C 
BRANCH  24  25
ATOM     25  O   UNL     1      -0.322  -6.150  13.135  1.00  0.00    -0.365 OA
ATOM     26  H   UNL     1      -1.214  -6.549  13.295  1.00  0.00     0.214 HD
ENDBRANCH  24  25
BRANCH  24  27
ATOM     27  N   UNL     1       1.760  -6.809  12.526  1.00  0.00    -0.259 NA
ATOM     28  C   UNL     1       1.897  -6.715  11.063  1.00  0.00     0.104 C 
ATOM     29  C   UNL     1       3.042  -6.626  13.224  1.00  0.00     0.089 C 
ATOM     30  C   UNL     1       3.378  -6.360  10.857  1.00  0.00     0.025 C 
ATOM     31  C   UNL     1       4.070  -6.797  12.127  1.00  0.00     0.017 C 
BRANCH  28  32
ATOM     32  C   UNL     1       1.501  -7.997  10.328  1.00  0.00     0.197 C 
BRANCH  32  33
ATOM     33  O   UNL     1       1.897  -9.094  10.734  1.00  0.00    -0.377 OA
ATOM     34  H   UNL     1       1.176  -9.533  11.251  1.00  0.00     0.212 HD
ENDBRANCH  32  33
BRANCH  32  35
ATOM     35  N   UNL     1       0.792  -7.853   9.220  1.00  0.00    -0.305 NA
ATOM     36  H   UNL     1      -0.011  -8.497   9.240  1.00  0.00     0.121 HD
ATOM     37  H   UNL     1       0.453  -6.882   9.154  1.00  0.00     0.121 HD
ENDBRANCH  32  35
ENDBRANCH  28  32
ENDBRANCH  24  27
ENDBRANCH   1  24
TORSDOF 10
ENDMDL
MODEL 15
REMARK VINA RESULT:    -7.565      2.093      3.838
REMARK INTER + INTRA:         -12.502
REMARK INTER:                 -11.620
REMARK INTRA:                  -0.882
REMARK UNBOUND:                -1.177
REMARK SMILES C[C@H]1N[C@@H](N[C@@H](O)N2CCC[C@H]2[C@@H](N)O)S[C@@H]1[C@H]1CCN[C@H](C(C)(C)C(F)(F)F)C1
REMARK SMILES IDX 5 1 4 3 2 4 17 5 3 6 16 7 1 8 18 10 19 11 30 12 20 13 22 14
REMARK SMILES IDX 21 15 23 17 24 18 25 19 26 20 27 21 28 22 29 23 6 24 7 25
REMARK SMILES IDX 8 27 12 28 9 29 11 30 10 31 13 32 15 33 14 35
REMARK H PARENT 5 2 3 9 21 16 7 26 15 34 14 36 14 37
ROOT
ATOM      1  N   UNL     1       0.419  -7.799  13.701  1.00  0.00    -0.255 NA
ATOM      2  H   UNL     1      -0.324  -8.407  13.328  1.00  0.00     0.129 HD
ENDROOT
BRANCH   1   3
ATOM      3  C   UNL     1      -0.038  -7.365  14.930  1.00  0.00     0.185 C 
ATOM      4  C   UNL     1      -0.567  -5.882  16.484  1.00  0.00     0.066 C 
ATOM      5  C   UNL     1      -0.941  -7.028  17.178  1.00  0.00     0.069 C 
ATOM      6  N   UNL     1      -0.066  -6.088  15.215  1.00  0.00    -0.290 NA
ATOM      7  S   UNL     1      -0.602  -8.420  16.176  1.00  0.00    -0.122 SA
ATOM      8  C   UNL     1      -0.683  -4.478  16.984  1.00  0.00     0.025 C 
ATOM      9  H   UNL     1      -0.665  -5.602  14.532  1.00  0.00     0.125 HD
BRANCH   5  10
ATOM     10  C   UNL     1      -1.508  -7.292  18.519  1.00  0.00     0.006 C 
ATOM     11  C   UNL     1      -1.779  -6.256  19.407  1.00  0.00     0.020 C 
ATOM     12  C   UNL     1      -1.807  -8.596  18.899  1.00  0.00     0.024 C 
ATOM     13  C   UNL     1      -2.289  -6.568  20.648  1.00  0.00     0.081 C 
ATOM     14  C   UNL     1      -2.343  -8.811  20.177  1.00  0.00     0.068 C 
ATOM     15  N   UNL     1      -2.564  -7.817  21.048  1.00  0.00    -0.313 NA
ATOM     16  H   UNL     1      -1.991  -8.006  21.883  1.00  0.00     0.122 HD
BRANCH  14  17
ATOM     17  C   UNL     1      -2.762 -10.227  20.642  1.00  0.00     0.076 C 
ATOM     18  C   UNL     1      -3.937 -10.164  21.631  1.00  0.00     0.022 C 
ATOM     19  C   UNL     1      -3.152 -11.090  19.429  1.00  0.00     0.022 C 
BRANCH  17  20
ATOM     20  C   UNL     1      -1.520 -10.957  21.408  1.00  0.00     0.395 C 
ATOM     21  F   UNL     1      -1.796 -11.113  22.702  1.00  0.00    -0.170 F 
ATOM     22  F   UNL     1      -1.245 -12.162  20.921  1.00  0.00    -0.170 F 
ATOM     23  F   UNL     1      -0.398 -10.251  21.320  1.00  0.00    -0.170 F 
ENDBRANCH  17  20
ENDBRANCH  14  17
ENDBRANCH   5  10
ENDBRANCH   1   3
BRANCH   1  24
ATOM     24  C   UNL     1       0.779  -6.950  12.643  1.00  0.00     0.261 C 
BRANCH  24  25
ATOM     25  O   UNL     1       0.093  -5.988  12.331  1.00  0.00    -0.365 OA
ATOM     26  H   UNL     1       0.633  -5.362  11.784  1.00  0.00     0.214 HD
ENDBRANCH  24  25
BRANCH  24  27
ATOM     27  N   UNL     1       1.945  -7.243  11.962  1.00  0.00    -0.259 NA
ATOM     28  C   UNL     1       1.883  -7.739  10.577  1.00  0.00     0.104 C 
ATOM     29  C   UNL     1       3.326  -7.111  12.451  1.00  0.00     0.089 C 
ATOM     30  C   UNL     1       3.358  -7.838  10.158  1.00  0.00     0.025 C 
ATOM     31  C   UNL     1       4.133  -7.912  11.453  1.00  0.00     0.017 C 
BRANCH  28  32
ATOM     32  C   UNL     1       1.151  -9.075  10.439  1.00  0.00     0.197 C 
BRANCH  32  33
ATOM     33  O   UNL     1      -0.069  -9.138  10.615  1.00  0.00    -0.377 OA
ATOM     34  H   UNL     1      -0.534  -8.710   9.853  1.00  0.00     0.212 HD
ENDBRANCH  32  33
BRANCH  32  35
ATOM     35  N   UNL     1       1.900 -10.140  10.199  1.00  0.00    -0.305 NA
ATOM     36  H   UNL     1       1.425 -10.981  10.556  1.00  0.00     0.121 HD
ATOM     37  H   UNL     1       2.049 -10.234   9.184  1.00  0.00     0.121 HD
ENDBRANCH  32  35
ENDBRANCH  28  32
ENDBRANCH  24  27
ENDBRANCH   1  24
TORSDOF 10
ENDMDL
MODEL 16
REMARK VINA RESULT:    -7.426      1.889      2.819
REMARK INTER + INTRA:         -12.294
REMARK INTER:                 -10.866
REMARK INTRA:                  -1.428
REMARK UNBOUND:                -1.177
REMARK SMILES C[C@H]1N[C@@H](N[C@@H](O)N2CCC[C@H]2[C@@H](N)O)S[C@@H]1[C@H]1CCN[C@H](C(C)(C)C(F)(F)F)C1
REMARK SMILES IDX 5 1 4 3 2 4 17 5 3 6 16 7 1 8 18 10 19 11 30 12 20 13 22 14
REMARK SMILES IDX 21 15 23 17 24 18 25 19 26 20 27 21 28 22 29 23 6 24 7 25
REMARK SMILES IDX 8 27 12 28 9 29 11 30 10 31 13 32 15 33 14 35
REMARK H PARENT 5 2 3 9 21 16 7 26 15 34 14 36 14 37
ROOT
ATOM      1  N   UNL     1       0.338  -6.339  15.222  1.00  0.00    -0.255 NA
ATOM      2  H   UNL     1      -0.014  -5.626  15.877  1.00  0.00     0.129 HD
ENDROOT
BRANCH   1   3
ATOM      3  C   UNL     1      -0.334  -7.503  15.544  1.00  0.00     0.185 C 
ATOM      4  C   UNL     1      -0.983  -9.602  15.287  1.00  0.00     0.066 C 
ATOM      5  C   UNL     1      -1.639  -9.344  16.486  1.00  0.00     0.069 C 
ATOM      6  N   UNL     1      -0.245  -8.555  14.772  1.00  0.00    -0.290 NA
ATOM      7  S   UNL     1      -1.325  -7.687  16.946  1.00  0.00    -0.122 SA
ATOM      8  C   UNL     1      -0.994 -10.898  14.543  1.00  0.00     0.025 C 
ATOM      9  H   UNL     1       0.742  -8.840  14.701  1.00  0.00     0.125 HD
BRANCH   5  10
ATOM     10  C   UNL     1      -2.515 -10.132  17.381  1.00  0.00     0.006 C 
ATOM     11  C   UNL     1      -3.336 -11.140  16.887  1.00  0.00     0.020 C 
ATOM     12  C   UNL     1      -2.505  -9.887  18.750  1.00  0.00     0.024 C 
ATOM     13  C   UNL     1      -4.143 -11.825  17.768  1.00  0.00     0.081 C 
ATOM     14  C   UNL     1      -3.348 -10.651  19.570  1.00  0.00     0.068 C 
ATOM     15  N   UNL     1      -4.170 -11.593  19.088  1.00  0.00    -0.313 NA
ATOM     16  H   UNL     1      -5.132 -11.318  19.333  1.00  0.00     0.122 HD
BRANCH  14  17
ATOM     17  C   UNL     1      -3.339 -10.479  21.109  1.00  0.00     0.076 C 
ATOM     18  C   UNL     1      -3.666  -9.031  21.509  1.00  0.00     0.022 C 
ATOM     19  C   UNL     1      -4.355 -11.437  21.755  1.00  0.00     0.022 C 
BRANCH  17  20
ATOM     20  C   UNL     1      -1.860 -10.827  21.704  1.00  0.00     0.395 C 
ATOM     21  F   UNL     1      -1.336 -11.876  21.072  1.00  0.00    -0.170 F 
ATOM     22  F   UNL     1      -0.999  -9.825  21.572  1.00  0.00    -0.170 F 
ATOM     23  F   UNL     1      -1.902 -11.119  22.999  1.00  0.00    -0.170 F 
ENDBRANCH  17  20
ENDBRANCH  14  17
ENDBRANCH   5  10
ENDBRANCH   1   3
BRANCH   1  24
ATOM     24  C   UNL     1       1.734  -6.202  15.228  1.00  0.00     0.261 C 
BRANCH  24  25
ATOM     25  O   UNL     1       2.421  -6.664  16.126  1.00  0.00    -0.365 OA
ATOM     26  H   UNL     1       1.881  -6.732  16.953  1.00  0.00     0.214 HD
ENDBRANCH  24  25
BRANCH  24  27
ATOM     27  N   UNL     1       2.310  -5.520  14.173  1.00  0.00    -0.259 NA
ATOM     28  C   UNL     1       1.786  -5.699  12.808  1.00  0.00     0.104 C 
ATOM     29  C   UNL     1       3.435  -4.573  14.224  1.00  0.00     0.089 C 
ATOM     30  C   UNL     1       2.611  -4.711  11.968  1.00  0.00     0.025 C 
ATOM     31  C   UNL     1       3.860  -4.449  12.777  1.00  0.00     0.017 C 
BRANCH  28  32
ATOM     32  C   UNL     1       1.903  -7.134  12.292  1.00  0.00     0.197 C 
BRANCH  32  33
ATOM     33  O   UNL     1       3.005  -7.598  11.988  1.00  0.00    -0.377 OA
ATOM     34  H   UNL     1       3.237  -7.319  11.067  1.00  0.00     0.212 HD
ENDBRANCH  32  33
BRANCH  32  35
ATOM     35  N   UNL     1       0.771  -7.800  12.127  1.00  0.00    -0.305 NA
ATOM     36  H   UNL     1       0.627  -7.988  11.125  1.00  0.00     0.121 HD
ATOM     37  H   UNL     1       0.818  -8.691  12.641  1.00  0.00     0.121 HD
ENDBRANCH  32  35
ENDBRANCH  28  32
ENDBRANCH  24  27
ENDBRANCH   1  24
TORSDOF 10
ENDMDL
MODEL 17
REMARK VINA RESULT:    -7.424      5.510      9.980
REMARK INTER + INTRA:         -12.291
REMARK INTER:                 -11.203
REMARK INTRA:                  -1.088
REMARK UNBOUND:                -1.177
REMARK SMILES C[C@H]1N[C@@H](N[C@@H](O)N2CCC[C@H]2[C@@H](N)O)S[C@@H]1[C@H]1CCN[C@H](C(C)(C)C(F)(F)F)C1
REMARK SMILES IDX 5 1 4 3 2 4 17 5 3 6 16 7 1 8 18 10 19 11 30 12 20 13 22 14
REMARK SMILES IDX 21 15 23 17 24 18 25 19 26 20 27 21 28 22 29 23 6 24 7 25
REMARK SMILES IDX 8 27 12 28 9 29 11 30 10 31 13 32 15 33 14 35
REMARK H PARENT 5 2 3 9 21 16 7 26 15 34 14 36 14 37
ROOT
ATOM      1  N   UNL     1      -1.914  -8.225  24.352  1.00  0.00    -0.255 NA
ATOM      2  H   UNL     1      -0.896  -8.372  24.406  1.00  0.00     0.129 HD
ENDROOT
BRANCH   1   3
ATOM      3  C   UNL     1      -2.278  -8.616  23.077  1.00  0.00     0.185 C 
ATOM      4  C   UNL     1      -3.543  -9.583  21.541  1.00  0.00     0.066 C 
ATOM      5  C   UNL     1      -2.569  -9.067  20.691  1.00  0.00     0.069 C 
ATOM      6  N   UNL     1      -3.368  -9.314  22.883  1.00  0.00    -0.290 NA
ATOM      7  S   UNL     1      -1.370  -8.240  21.657  1.00  0.00    -0.122 SA
ATOM      8  C   UNL     1      -4.745 -10.365  21.122  1.00  0.00     0.025 C 
ATOM      9  H   UNL     1      -4.178  -8.779  23.229  1.00  0.00     0.125 HD
BRANCH   5  10
ATOM     10  C   UNL     1      -2.345  -9.098  19.229  1.00  0.00     0.006 C 
ATOM     11  C   UNL     1      -1.982  -7.953  18.527  1.00  0.00     0.020 C 
ATOM     12  C   UNL     1      -2.470 -10.297  18.535  1.00  0.00     0.024 C 
ATOM     13  C   UNL     1      -1.806  -8.043  17.164  1.00  0.00     0.081 C 
ATOM     14  C   UNL     1      -2.252 -10.292  17.150  1.00  0.00     0.068 C 
ATOM     15  N   UNL     1      -1.943  -9.180  16.468  1.00  0.00    -0.313 NA
ATOM     16  H   UNL     1      -2.688  -9.028  15.773  1.00  0.00     0.122 HD
BRANCH  14  17
ATOM     17  C   UNL     1      -2.308 -11.601  16.325  1.00  0.00     0.076 C 
ATOM     18  C   UNL     1      -1.663 -11.415  14.942  1.00  0.00     0.022 C 
ATOM     19  C   UNL     1      -1.593 -12.735  17.081  1.00  0.00     0.022 C 
BRANCH  17  20
ATOM     20  C   UNL     1      -3.859 -12.046  16.084  1.00  0.00     0.395 C 
ATOM     21  F   UNL     1      -4.515 -11.106  15.406  1.00  0.00    -0.170 F 
ATOM     22  F   UNL     1      -3.973 -13.175  15.394  1.00  0.00    -0.170 F 
ATOM     23  F   UNL     1      -4.504 -12.238  17.229  1.00  0.00    -0.170 F 
ENDBRANCH  17  20
ENDBRANCH  14  17
ENDBRANCH   5  10
ENDBRANCH   1   3
BRANCH   1  24
ATOM     24  C   UNL     1      -2.141  -6.948  24.885  1.00  0.00     0.261 C 
BRANCH  24  25
ATOM     25  O   UNL     1      -1.809  -5.934  24.288  1.00  0.00    -0.365 OA
ATOM     26  H   UNL     1      -1.069  -5.492  24.776  1.00  0.00     0.214 HD
ENDBRANCH  24  25
BRANCH  24  27
ATOM     27  N   UNL     1      -2.760  -6.875  26.118  1.00  0.00    -0.259 NA
ATOM     28  C   UNL     1      -2.064  -6.250  27.254  1.00  0.00     0.104 C 
ATOM     29  C   UNL     1      -4.104  -7.356  26.477  1.00  0.00     0.089 C 
ATOM     30  C   UNL     1      -3.108  -6.276  28.382  1.00  0.00     0.025 C 
ATOM     31  C   UNL     1      -4.087  -7.358  27.990  1.00  0.00     0.017 C 
BRANCH  28  32
ATOM     32  C   UNL     1      -0.770  -6.965  27.648  1.00  0.00     0.197 C 
BRANCH  32  33
ATOM     33  O   UNL     1      -0.620  -8.163  27.394  1.00  0.00    -0.377 OA
ATOM     34  H   UNL     1      -1.126  -8.393  26.575  1.00  0.00     0.212 HD
ENDBRANCH  32  33
BRANCH  32  35
ATOM     35  N   UNL     1       0.118  -6.255  28.324  1.00  0.00    -0.305 NA
ATOM     36  H   UNL     1      -0.315  -5.378  28.645  1.00  0.00     0.121 HD
ATOM     37  H   UNL     1       0.442  -6.796  29.139  1.00  0.00     0.121 HD
ENDBRANCH  32  35
ENDBRANCH  28  32
ENDBRANCH  24  27
ENDBRANCH   1  24
TORSDOF 10
ENDMDL
MODEL 18
REMARK VINA RESULT:    -7.412      2.802      3.869
REMARK INTER + INTRA:         -12.273
REMARK INTER:                 -11.327
REMARK INTRA:                  -0.946
REMARK UNBOUND:                -1.177
REMARK SMILES C[C@H]1N[C@@H](N[C@@H](O)N2CCC[C@H]2[C@@H](N)O)S[C@@H]1[C@H]1CCN[C@H](C(C)(C)C(F)(F)F)C1
REMARK SMILES IDX 5 1 4 3 2 4 17 5 3 6 16 7 1 8 18 10 19 11 30 12 20 13 22 14
REMARK SMILES IDX 21 15 23 17 24 18 25 19 26 20 27 21 28 22 29 23 6 24 7 25
REMARK SMILES IDX 8 27 12 28 9 29 11 30 10 31 13 32 15 33 14 35
REMARK H PARENT 5 2 3 9 21 16 7 26 15 34 14 36 14 37
ROOT
ATOM      1  N   UNL     1       0.541  -6.457  15.582  1.00  0.00    -0.255 NA
ATOM      2  H   UNL     1       0.444  -6.257  14.576  1.00  0.00     0.129 HD
ENDROOT
BRANCH   1   3
ATOM      3  C   UNL     1      -0.218  -7.589  15.810  1.00  0.00     0.185 C 
ATOM      4  C   UNL     1      -1.043  -9.595  15.372  1.00  0.00     0.066 C 
ATOM      5  C   UNL     1      -1.650  -9.403  16.609  1.00  0.00     0.069 C 
ATOM      6  N   UNL     1      -0.233  -8.565  14.938  1.00  0.00    -0.290 NA
ATOM      7  S   UNL     1      -1.191  -7.830  17.217  1.00  0.00    -0.122 SA
ATOM      8  C   UNL     1      -1.178 -10.806  14.508  1.00  0.00     0.025 C 
ATOM      9  H   UNL     1       0.725  -8.920  14.811  1.00  0.00     0.125 HD
BRANCH   5  10
ATOM     10  C   UNL     1      -2.568 -10.203  17.450  1.00  0.00     0.006 C 
ATOM     11  C   UNL     1      -3.357 -11.210  16.906  1.00  0.00     0.020 C 
ATOM     12  C   UNL     1      -2.632  -9.969  18.820  1.00  0.00     0.024 C 
ATOM     13  C   UNL     1      -4.206 -11.906  17.737  1.00  0.00     0.081 C 
ATOM     14  C   UNL     1      -3.513 -10.744  19.588  1.00  0.00     0.068 C 
ATOM     15  N   UNL     1      -4.304 -11.686  19.056  1.00  0.00    -0.313 NA
ATOM     16  H   UNL     1      -5.279 -11.416  19.252  1.00  0.00     0.122 HD
BRANCH  14  17
ATOM     17  C   UNL     1      -3.586 -10.585  21.127  1.00  0.00     0.076 C 
ATOM     18  C   UNL     1      -4.014  -9.162  21.519  1.00  0.00     0.022 C 
ATOM     19  C   UNL     1      -4.575 -11.605  21.719  1.00  0.00     0.022 C 
BRANCH  17  20
ATOM     20  C   UNL     1      -2.119 -10.853  21.789  1.00  0.00     0.395 C 
ATOM     21  F   UNL     1      -2.244 -11.251  23.055  1.00  0.00    -0.170 F 
ATOM     22  F   UNL     1      -1.426 -11.790  21.154  1.00  0.00    -0.170 F 
ATOM     23  F   UNL     1      -1.365  -9.759  21.785  1.00  0.00    -0.170 F 
ENDBRANCH  17  20
ENDBRANCH  14  17
ENDBRANCH   5  10
ENDBRANCH   1   3
BRANCH   1  24
ATOM     24  C   UNL     1       0.347  -5.229  16.231  1.00  0.00     0.261 C 
BRANCH  24  25
ATOM     25  O   UNL     1      -0.614  -4.516  15.984  1.00  0.00    -0.365 OA
ATOM     26  H   UNL     1      -1.253  -5.010  15.412  1.00  0.00     0.214 HD
ENDBRANCH  24  25
BRANCH  24  27
ATOM     27  N   UNL     1       1.290  -4.850  17.168  1.00  0.00    -0.259 NA
ATOM     28  C   UNL     1       2.641  -4.460  16.734  1.00  0.00     0.104 C 
ATOM     29  C   UNL     1       1.121  -4.768  18.627  1.00  0.00     0.089 C 
ATOM     30  C   UNL     1       3.330  -4.020  18.036  1.00  0.00     0.025 C 
ATOM     31  C   UNL     1       2.540  -4.679  19.144  1.00  0.00     0.017 C 
BRANCH  28  32
ATOM     32  C   UNL     1       3.405  -5.581  16.027  1.00  0.00     0.197 C 
BRANCH  32  33
ATOM     33  O   UNL     1       3.404  -6.724  16.493  1.00  0.00    -0.377 OA
ATOM     34  H   UNL     1       2.857  -6.743  17.318  1.00  0.00     0.212 HD
ENDBRANCH  32  33
BRANCH  32  35
ATOM     35  N   UNL     1       4.106  -5.240  14.958  1.00  0.00    -0.305 NA
ATOM     36  H   UNL     1       3.627  -4.475  14.463  1.00  0.00     0.121 HD
ATOM     37  H   UNL     1       5.044  -4.927  15.248  1.00  0.00     0.121 HD
ENDBRANCH  32  35
ENDBRANCH  28  32
ENDBRANCH  24  27
ENDBRANCH   1  24
TORSDOF 10
ENDMDL
MODEL 19
REMARK VINA RESULT:    -7.325      3.036      4.619
REMARK INTER + INTRA:         -12.143
REMARK INTER:                 -10.963
REMARK INTRA:                  -1.180
REMARK UNBOUND:                -1.177
REMARK SMILES C[C@H]1N[C@@H](N[C@@H](O)N2CCC[C@H]2[C@@H](N)O)S[C@@H]1[C@H]1CCN[C@H](C(C)(C)C(F)(F)F)C1
REMARK SMILES IDX 5 1 4 3 2 4 17 5 3 6 16 7 1 8 18 10 19 11 30 12 20 13 22 14
REMARK SMILES IDX 21 15 23 17 24 18 25 19 26 20 27 21 28 22 29 23 6 24 7 25
REMARK SMILES IDX 8 27 12 28 9 29 11 30 10 31 13 32 15 33 14 35
REMARK H PARENT 5 2 3 9 21 16 7 26 15 34 14 36 14 37
ROOT
ATOM      1  N   UNL     1      -0.313  -5.702  15.814  1.00  0.00    -0.255 NA
ATOM      2  H   UNL     1      -1.164  -5.127  15.739  1.00  0.00     0.129 HD
ENDROOT
BRANCH   1   3
ATOM      3  C   UNL     1      -0.754  -6.991  16.047  1.00  0.00     0.185 C 
ATOM      4  C   UNL     1      -0.834  -9.184  15.768  1.00  0.00     0.066 C 
ATOM      5  C   UNL     1      -1.774  -9.086  16.789  1.00  0.00     0.069 C 
ATOM      6  N   UNL     1      -0.262  -7.994  15.366  1.00  0.00    -0.290 NA
ATOM      7  S   UNL     1      -1.954  -7.402  17.220  1.00  0.00    -0.122 SA
ATOM      8  C   UNL     1      -0.388 -10.447  15.105  1.00  0.00     0.025 C 
ATOM      9  H   UNL     1       0.755  -8.040  15.517  1.00  0.00     0.125 HD
BRANCH   5  10
ATOM     10  C   UNL     1      -2.617 -10.057  17.521  1.00  0.00     0.006 C 
ATOM     11  C   UNL     1      -3.229 -11.122  16.868  1.00  0.00     0.020 C 
ATOM     12  C   UNL     1      -2.786  -9.928  18.896  1.00  0.00     0.024 C 
ATOM     13  C   UNL     1      -4.017 -11.980  17.602  1.00  0.00     0.081 C 
ATOM     14  C   UNL     1      -3.592 -10.865  19.559  1.00  0.00     0.068 C 
ATOM     15  N   UNL     1      -4.216 -11.865  18.923  1.00  0.00    -0.313 NA
ATOM     16  H   UNL     1      -5.227 -11.743  19.073  1.00  0.00     0.122 HD
BRANCH  14  17
ATOM     17  C   UNL     1      -3.770 -10.822  21.097  1.00  0.00     0.076 C 
ATOM     18  C   UNL     1      -4.456  -9.521  21.542  1.00  0.00     0.022 C 
ATOM     19  C   UNL     1      -4.596 -12.031  21.569  1.00  0.00     0.022 C 
BRANCH  17  20
ATOM     20  C   UNL     1      -2.314 -10.881  21.832  1.00  0.00     0.395 C 
ATOM     21  F   UNL     1      -1.742  -9.678  21.833  1.00  0.00    -0.170 F 
ATOM     22  F   UNL     1      -2.387 -11.278  23.097  1.00  0.00    -0.170 F 
ATOM     23  F   UNL     1      -1.483 -11.720  21.222  1.00  0.00    -0.170 F 
ENDBRANCH  17  20
ENDBRANCH  14  17
ENDBRANCH   5  10
ENDBRANCH   1   3
BRANCH   1  24
ATOM     24  C   UNL     1       0.549  -4.993  16.664  1.00  0.00     0.261 C 
BRANCH  24  25
ATOM     25  O   UNL     1       1.692  -4.716  16.334  1.00  0.00    -0.365 OA
ATOM     26  H   UNL     1       1.961  -3.863  16.759  1.00  0.00     0.214 HD
ENDBRANCH  24  25
BRANCH  24  27
ATOM     27  N   UNL     1       0.054  -4.614  17.897  1.00  0.00    -0.259 NA
ATOM     28  C   UNL     1      -1.099  -3.703  17.979  1.00  0.00     0.104 C 
ATOM     29  C   UNL     1       0.541  -5.027  19.223  1.00  0.00     0.089 C 
ATOM     30  C   UNL     1      -1.393  -3.620  19.485  1.00  0.00     0.025 C 
ATOM     31  C   UNL     1      -0.108  -4.034  20.163  1.00  0.00     0.017 C 
BRANCH  28  32
ATOM     32  C   UNL     1      -0.835  -2.327  17.365  1.00  0.00     0.197 C 
BRANCH  32  33
ATOM     33  O   UNL     1       0.317  -1.976  17.095  1.00  0.00    -0.377 OA
ATOM     34  H   UNL     1       0.495  -1.089  17.497  1.00  0.00     0.212 HD
ENDBRANCH  32  33
BRANCH  32  35
ATOM     35  N   UNL     1      -1.883  -1.532  17.217  1.00  0.00    -0.305 NA
ATOM     36  H   UNL     1      -1.707  -0.639  17.697  1.00  0.00     0.121 HD
ATOM     37  H   UNL     1      -2.043  -1.357  16.215  1.00  0.00     0.121 HD
ENDBRANCH  32  35
ENDBRANCH  28  32
ENDBRANCH  24  27
ENDBRANCH   1  24
TORSDOF 10
ENDMDL
MODEL 20
REMARK VINA RESULT:    -7.216      4.164      6.667
REMARK INTER + INTRA:         -11.979
REMARK INTER:                 -10.703
REMARK INTRA:                  -1.276
REMARK UNBOUND:                -1.177
REMARK SMILES C[C@H]1N[C@@H](N[C@@H](O)N2CCC[C@H]2[C@@H](N)O)S[C@@H]1[C@H]1CCN[C@H](C(C)(C)C(F)(F)F)C1
REMARK SMILES IDX 5 1 4 3 2 4 17 5 3 6 16 7 1 8 18 10 19 11 30 12 20 13 22 14
REMARK SMILES IDX 21 15 23 17 24 18 25 19 26 20 27 21 28 22 29 23 6 24 7 25
REMARK SMILES IDX 8 27 12 28 9 29 11 30 10 31 13 32 15 33 14 35
REMARK H PARENT 5 2 3 9 21 16 7 26 15 34 14 36 14 37
ROOT
ATOM      1  N   UNL     1      -0.406  -3.800  17.384  1.00  0.00    -0.255 NA
ATOM      2  H   UNL     1      -0.762  -4.101  18.303  1.00  0.00     0.129 HD
ENDROOT
BRANCH   1   3
ATOM      3  C   UNL     1      -0.224  -4.961  16.657  1.00  0.00     0.185 C 
ATOM      4  C   UNL     1       0.796  -6.327  15.247  1.00  0.00     0.066 C 
ATOM      5  C   UNL     1      -0.261  -7.162  15.594  1.00  0.00     0.069 C 
ATOM      6  N   UNL     1       0.806  -5.090  15.861  1.00  0.00    -0.290 NA
ATOM      7  S   UNL     1      -1.295  -6.315  16.719  1.00  0.00    -0.122 SA
ATOM      8  C   UNL     1       1.906  -6.662  14.305  1.00  0.00     0.025 C 
ATOM      9  H   UNL     1       1.672  -4.993  16.411  1.00  0.00     0.125 HD
BRANCH   5  10
ATOM     10  C   UNL     1      -0.674  -8.529  15.205  1.00  0.00     0.006 C 
ATOM     11  C   UNL     1      -0.316  -9.072  13.976  1.00  0.00     0.020 C 
ATOM     12  C   UNL     1      -1.411  -9.307  16.093  1.00  0.00     0.024 C 
ATOM     13  C   UNL     1      -0.747 -10.343  13.666  1.00  0.00     0.081 C 
ATOM     14  C   UNL     1      -1.787 -10.598  15.694  1.00  0.00     0.068 C 
ATOM     15  N   UNL     1      -1.479 -11.105  14.492  1.00  0.00    -0.313 NA
ATOM     16  H   UNL     1      -2.364 -11.319  14.011  1.00  0.00     0.122 HD
BRANCH  14  17
ATOM     17  C   UNL     1      -2.549 -11.543  16.654  1.00  0.00     0.076 C 
ATOM     18  C   UNL     1      -1.708 -12.783  16.999  1.00  0.00     0.022 C 
ATOM     19  C   UNL     1      -2.925 -10.796  17.946  1.00  0.00     0.022 C 
BRANCH  17  20
ATOM     20  C   UNL     1      -3.925 -12.068  15.950  1.00  0.00     0.395 C 
ATOM     21  F   UNL     1      -4.850 -12.333  16.872  1.00  0.00    -0.170 F 
ATOM     22  F   UNL     1      -4.452 -11.180  15.115  1.00  0.00    -0.170 F 
ATOM     23  F   UNL     1      -3.731 -13.178  15.247  1.00  0.00    -0.170 F 
ENDBRANCH  17  20
ENDBRANCH  14  17
ENDBRANCH   5  10
ENDBRANCH   1   3
BRANCH   1  24
ATOM     24  C   UNL     1       0.607  -2.869  17.659  1.00  0.00     0.261 C 
BRANCH  24  25
ATOM     25  O   UNL     1       0.597  -1.747  17.173  1.00  0.00    -0.365 OA
ATOM     26  H   UNL     1       1.128  -1.136  17.744  1.00  0.00     0.214 HD
ENDBRANCH  24  25
BRANCH  24  27
ATOM     27  N   UNL     1       1.624  -3.268  18.505  1.00  0.00    -0.259 NA
ATOM     28  C   UNL     1       3.018  -2.903  18.202  1.00  0.00     0.104 C 
ATOM     29  C   UNL     1       1.503  -4.045  19.748  1.00  0.00     0.089 C 
ATOM     30  C   UNL     1       3.804  -3.433  19.411  1.00  0.00     0.025 C 
ATOM     31  C   UNL     1       2.921  -4.493  20.025  1.00  0.00     0.017 C 
BRANCH  28  32
ATOM     32  C   UNL     1       3.528  -3.482  16.881  1.00  0.00     0.197 C 
BRANCH  32  33
ATOM     33  O   UNL     1       3.008  -3.148  15.813  1.00  0.00    -0.377 OA
ATOM     34  H   UNL     1       2.215  -3.716  15.641  1.00  0.00     0.212 HD
ENDBRANCH  32  33
BRANCH  32  35
ATOM     35  N   UNL     1       4.485  -4.393  16.963  1.00  0.00    -0.305 NA
ATOM     36  H   UNL     1       4.711  -4.565  17.952  1.00  0.00     0.121 HD
ATOM     37  H   UNL     1       4.163  -5.269  16.527  1.00  0.00     0.121 HD
ENDBRANCH  32  35
ENDBRANCH  28  32
ENDBRANCH  24  27
ENDBRANCH   1  24
TORSDOF 10
ENDMDL
