MODEL 1
REMARK VINA RESULT:    -9.174      0.000      0.000
REMARK INTER + INTRA:         -11.045
REMARK INTER:                 -10.782
REMARK INTRA:                  -0.262
REMARK UNBOUND:                -0.262
REMARK SMILES CN1C(N)=N[C@](C)(c2cc(NC(=O)c3ccc(F)cn3)ccc2F)CS1(=O)=O
REMARK SMILES IDX 8 1 9 2 10 3 21 4 22 5 23 6 24 7 6 8 25 9 5 10 26 11 3 12
REMARK SMILES IDX 27 13 2 14 28 15 4 16 7 17 1 18 11 21 12 22 13 23 14 25
REMARK SMILES IDX 20 26 15 27 19 28 16 29 17 30 18 31
REMARK H PARENT 4 19 4 20 11 24
ROOT
ATOM      1  C   UNL     1      24.735  12.500  21.041  1.00  0.00     0.018 A 
ATOM      2  C   UNL     1      24.038  12.267  22.226  1.00  0.00     0.035 A 
ATOM      3  C   UNL     1      23.396  11.076  22.480  1.00  0.00     0.042 A 
ATOM      4  C   UNL     1      23.404  10.057  21.536  1.00  0.00     0.029 A 
ATOM      5  C   UNL     1      24.094  10.270  20.356  1.00  0.00     0.042 A 
ATOM      6  C   UNL     1      24.761  11.457  20.128  1.00  0.00     0.129 A 
ATOM      7  F   UNL     1      25.455  11.630  18.974  1.00  0.00    -0.207 F 
ENDROOT
BRANCH   1   8
ATOM      8  C   UNL     1      25.437  13.826  20.791  1.00  0.00     0.105 C 
ATOM      9  C   UNL     1      26.919  13.723  20.510  1.00  0.00     0.195 C 
ATOM     10  N   UNL     1      25.196  14.786  21.867  1.00  0.00    -0.240 NA
ATOM     11  S   UNL     1      27.782  13.074  21.920  1.00  0.00     0.239 S 
ATOM     12  C   UNL     1      25.875  14.757  22.972  1.00  0.00     0.205 C 
ATOM     13  O   UNL     1      29.132  13.602  21.858  1.00  0.00    -0.206 OA
ATOM     14  N   UNL     1      26.971  13.894  23.198  1.00  0.00    -0.243 N 
ATOM     15  O   UNL     1      27.466  11.697  22.143  1.00  0.00    -0.206 OA
ATOM     16  N   UNL     1      25.601  15.593  24.021  1.00  0.00    -0.369 N 
ATOM     17  C   UNL     1      24.796  14.503  19.577  1.00  0.00     0.044 C 
ATOM     18  C   UNL     1      27.654  13.786  24.502  1.00  0.00     0.167 C 
ATOM     19  H   UNL     1      24.854  16.232  23.958  1.00  0.00     0.159 HD
ATOM     20  H   UNL     1      26.149  15.555  24.837  1.00  0.00     0.159 HD
ENDBRANCH   1   8
BRANCH   3  21
ATOM     21  N   UNL     1      22.730  10.972  23.708  1.00  0.00    -0.321 N 
ATOM     22  C   UNL     1      23.224  11.224  24.976  1.00  0.00     0.274 C 
ATOM     23  O   UNL     1      24.395  11.463  25.240  1.00  0.00    -0.267 OA
ATOM     24  H   UNL     1      21.789  10.683  23.663  1.00  0.00     0.170 HD
BRANCH  22  25
ATOM     25  C   UNL     1      22.212  11.229  26.060  1.00  0.00     0.128 A 
ATOM     26  N   UNL     1      22.635  11.630  27.264  1.00  0.00    -0.248 NA
ATOM     27  C   UNL     1      20.911  10.841  25.793  1.00  0.00     0.037 A 
ATOM     28  C   UNL     1      21.738  11.639  28.263  1.00  0.00     0.151 A 
ATOM     29  C   UNL     1      20.008  10.866  26.842  1.00  0.00     0.043 A 
ATOM     30  C   UNL     1      20.424  11.265  28.098  1.00  0.00     0.141 A 
ATOM     31  F   UNL     1      19.581  11.315  29.144  1.00  0.00    -0.205 F 
ENDBRANCH  22  25
ENDBRANCH   3  21
TORSDOF 3
ENDMDL
MODEL 2
REMARK VINA RESULT:    -8.625      1.577      1.691
REMARK INTER + INTRA:         -10.399
REMARK INTER:                 -10.048
REMARK INTRA:                  -0.352
REMARK UNBOUND:                -0.262
REMARK SMILES CN1C(N)=N[C@](C)(c2cc(NC(=O)c3ccc(F)cn3)ccc2F)CS1(=O)=O
REMARK SMILES IDX 8 1 9 2 10 3 21 4 22 5 23 6 24 7 6 8 25 9 5 10 26 11 3 12
REMARK SMILES IDX 27 13 2 14 28 15 4 16 7 17 1 18 11 21 12 22 13 23 14 25
REMARK SMILES IDX 20 26 15 27 19 28 16 29 17 30 18 31
REMARK H PARENT 4 19 4 20 11 24
ROOT
ATOM      1  C   UNL     1      24.952  12.169  21.095  1.00  0.00     0.018 A 
ATOM      2  C   UNL     1      24.529  12.318  22.415  1.00  0.00     0.035 A 
ATOM      3  C   UNL     1      23.601  11.480  22.990  1.00  0.00     0.042 A 
ATOM      4  C   UNL     1      23.028  10.453  22.251  1.00  0.00     0.029 A 
ATOM      5  C   UNL     1      23.438  10.288  20.940  1.00  0.00     0.042 A 
ATOM      6  C   UNL     1      24.394  11.116  20.386  1.00  0.00     0.129 A 
ATOM      7  F   UNL     1      24.800  10.915  19.106  1.00  0.00    -0.207 F 
ENDROOT
BRANCH   1   8
ATOM      8  C   UNL     1      25.982  13.110  20.489  1.00  0.00     0.105 C 
ATOM      9  C   UNL     1      27.149  12.429  19.809  1.00  0.00     0.195 C 
ATOM     10  N   UNL     1      26.468  14.089  21.460  1.00  0.00    -0.240 NA
ATOM     11  S   UNL     1      28.101  11.495  20.980  1.00  0.00     0.239 S 
ATOM     12  C   UNL     1      27.397  13.796  22.317  1.00  0.00     0.205 C 
ATOM     13  O   UNL     1      29.458  11.448  20.467  1.00  0.00    -0.206 OA
ATOM     14  N   UNL     1      28.101  12.571  22.324  1.00  0.00    -0.243 N 
ATOM     15  O   UNL     1      27.381  10.355  21.455  1.00  0.00    -0.206 OA
ATOM     16  N   UNL     1      27.799  14.674  23.288  1.00  0.00    -0.369 N 
ATOM     17  C   UNL     1      25.295  13.983  19.436  1.00  0.00     0.044 C 
ATOM     18  C   UNL     1      29.066  12.204  23.380  1.00  0.00     0.167 C 
ATOM     19  H   UNL     1      27.368  15.555  23.363  1.00  0.00     0.159 HD
ATOM     20  H   UNL     1      28.521  14.424  23.910  1.00  0.00     0.159 HD
ENDBRANCH   1   8
BRANCH   3  21
ATOM     21  N   UNL     1      23.261  11.740  24.324  1.00  0.00    -0.321 N 
ATOM     22  C   UNL     1      22.363  12.671  24.814  1.00  0.00     0.274 C 
ATOM     23  O   UNL     1      21.800  13.527  24.144  1.00  0.00    -0.267 OA
ATOM     24  H   UNL     1      23.720  11.189  24.999  1.00  0.00     0.170 HD
BRANCH  22  25
ATOM     25  C   UNL     1      22.064  12.562  26.262  1.00  0.00     0.128 A 
ATOM     26  N   UNL     1      22.609  13.493  27.052  1.00  0.00    -0.248 NA
ATOM     27  C   UNL     1      21.252  11.541  26.725  1.00  0.00     0.037 A 
ATOM     28  C   UNL     1      22.355  13.412  28.369  1.00  0.00     0.151 A 
ATOM     29  C   UNL     1      21.005  11.488  28.086  1.00  0.00     0.043 A 
ATOM     30  C   UNL     1      21.566  12.431  28.924  1.00  0.00     0.141 A 
ATOM     31  F   UNL     1      21.346  12.425  30.250  1.00  0.00    -0.205 F 
ENDBRANCH  22  25
ENDBRANCH   3  21
TORSDOF 3
ENDMDL
MODEL 3
REMARK VINA RESULT:    -8.551      2.405      3.791
REMARK INTER + INTRA:         -10.313
REMARK INTER:                 -10.037
REMARK INTRA:                  -0.276
REMARK UNBOUND:                -0.262
REMARK SMILES CN1C(N)=N[C@](C)(c2cc(NC(=O)c3ccc(F)cn3)ccc2F)CS1(=O)=O
REMARK SMILES IDX 8 1 9 2 10 3 21 4 22 5 23 6 24 7 6 8 25 9 5 10 26 11 3 12
REMARK SMILES IDX 27 13 2 14 28 15 4 16 7 17 1 18 11 21 12 22 13 23 14 25
REMARK SMILES IDX 20 26 15 27 19 28 16 29 17 30 18 31
REMARK H PARENT 4 19 4 20 11 24
ROOT
ATOM      1  C   UNL     1      26.915  13.074  22.936  1.00  0.00     0.018 A 
ATOM      2  C   UNL     1      25.834  12.704  23.735  1.00  0.00     0.035 A 
ATOM      3  C   UNL     1      25.651  13.204  25.004  1.00  0.00     0.042 A 
ATOM      4  C   UNL     1      26.568  14.094  25.548  1.00  0.00     0.029 A 
ATOM      5  C   UNL     1      27.646  14.475  24.768  1.00  0.00     0.042 A 
ATOM      6  C   UNL     1      27.799  13.990  23.485  1.00  0.00     0.129 A 
ATOM      7  F   UNL     1      28.850  14.403  22.729  1.00  0.00    -0.207 F 
ENDROOT
BRANCH   1   8
ATOM      8  C   UNL     1      27.088  12.506  21.536  1.00  0.00     0.105 C 
ATOM      9  C   UNL     1      27.152  13.536  20.430  1.00  0.00     0.195 C 
ATOM     10  N   UNL     1      26.076  11.498  21.224  1.00  0.00    -0.240 NA
ATOM     11  S   UNL     1      25.622  14.428  20.314  1.00  0.00     0.239 S 
ATOM     12  C   UNL     1      24.886  11.826  20.828  1.00  0.00     0.205 C 
ATOM     13  O   UNL     1      25.499  14.862  18.934  1.00  0.00    -0.206 OA
ATOM     14  N   UNL     1      24.488  13.153  20.549  1.00  0.00    -0.243 N 
ATOM     15  O   UNL     1      25.419  15.278  21.445  1.00  0.00    -0.206 OA
ATOM     16  N   UNL     1      23.903  10.897  20.618  1.00  0.00    -0.369 N 
ATOM     17  C   UNL     1      28.394  11.709  21.483  1.00  0.00     0.044 C 
ATOM     18  C   UNL     1      23.098  13.525  20.219  1.00  0.00     0.167 C 
ATOM     19  H   UNL     1      24.083   9.943  20.785  1.00  0.00     0.159 HD
ATOM     20  H   UNL     1      23.015  11.181  20.299  1.00  0.00     0.159 HD
ENDBRANCH   1   8
BRANCH   3  21
ATOM     21  N   UNL     1      24.525  12.748  25.702  1.00  0.00    -0.321 N 
ATOM     22  C   UNL     1      23.194  12.835  25.332  1.00  0.00     0.274 C 
ATOM     23  O   UNL     1      22.771  13.457  24.366  1.00  0.00    -0.267 OA
ATOM     24  H   UNL     1      24.703  12.310  26.565  1.00  0.00     0.170 HD
BRANCH  22  25
ATOM     25  C   UNL     1      22.250  12.071  26.183  1.00  0.00     0.128 A 
ATOM     26  N   UNL     1      22.612  11.891  27.457  1.00  0.00    -0.248 NA
ATOM     27  C   UNL     1      21.064  11.599  25.647  1.00  0.00     0.037 A 
ATOM     28  C   UNL     1      21.774  11.198  28.246  1.00  0.00     0.151 A 
ATOM     29  C   UNL     1      20.219  10.894  26.486  1.00  0.00     0.043 A 
ATOM     30  C   UNL     1      20.577  10.684  27.803  1.00  0.00     0.141 A 
ATOM     31  F   UNL     1      19.784  10.014  28.658  1.00  0.00    -0.205 F 
ENDBRANCH  22  25
ENDBRANCH   3  21
TORSDOF 3
ENDMDL
MODEL 4
REMARK VINA RESULT:    -8.507      1.230      1.366
REMARK INTER + INTRA:         -10.262
REMARK INTER:                  -9.839
REMARK INTRA:                  -0.423
REMARK UNBOUND:                -0.262
REMARK SMILES CN1C(N)=N[C@](C)(c2cc(NC(=O)c3ccc(F)cn3)ccc2F)CS1(=O)=O
REMARK SMILES IDX 8 1 9 2 10 3 21 4 22 5 23 6 24 7 6 8 25 9 5 10 26 11 3 12
REMARK SMILES IDX 27 13 2 14 28 15 4 16 7 17 1 18 11 21 12 22 13 23 14 25
REMARK SMILES IDX 20 26 15 27 19 28 16 29 17 30 18 31
REMARK H PARENT 4 19 4 20 11 24
ROOT
ATOM      1  C   UNL     1      25.317  13.590  21.408  1.00  0.00     0.018 A 
ATOM      2  C   UNL     1      24.585  13.484  22.589  1.00  0.00     0.035 A 
ATOM      3  C   UNL     1      23.612  12.526  22.769  1.00  0.00     0.042 A 
ATOM      4  C   UNL     1      23.308  11.633  21.749  1.00  0.00     0.029 A 
ATOM      5  C   UNL     1      24.028  11.722  20.571  1.00  0.00     0.042 A 
ATOM      6  C   UNL     1      25.023  12.667  20.417  1.00  0.00     0.129 A 
ATOM      7  F   UNL     1      25.734  12.714  19.261  1.00  0.00    -0.207 F 
ENDROOT
BRANCH   1   8
ATOM      8  C   UNL     1      26.388  14.657  21.241  1.00  0.00     0.105 C 
ATOM      9  C   UNL     1      27.760  14.137  20.875  1.00  0.00     0.195 C 
ATOM     10  N   UNL     1      26.478  15.531  22.410  1.00  0.00    -0.240 NA
ATOM     11  S   UNL     1      28.411  13.117  22.174  1.00  0.00     0.239 S 
ATOM     12  C   UNL     1      27.140  15.185  23.471  1.00  0.00     0.205 C 
ATOM     13  O   UNL     1      29.857  13.212  22.090  1.00  0.00    -0.206 OA
ATOM     14  N   UNL     1      27.921  14.011  23.561  1.00  0.00    -0.243 N 
ATOM     15  O   UNL     1      27.692  11.886  22.289  1.00  0.00    -0.206 OA
ATOM     16  N   UNL     1      27.159  15.953  24.604  1.00  0.00    -0.369 N 
ATOM     17  C   UNL     1      25.960  15.617  20.128  1.00  0.00     0.044 C 
ATOM     18  C   UNL     1      28.566  13.568  24.813  1.00  0.00     0.167 C 
ATOM     19  H   UNL     1      26.645  16.792  24.638  1.00  0.00     0.159 HD
ATOM     20  H   UNL     1      27.688  15.668  25.384  1.00  0.00     0.159 HD
ENDBRANCH   1   8
BRANCH   3  21
ATOM     21  N   UNL     1      22.948  12.529  24.002  1.00  0.00    -0.321 N 
ATOM     22  C   UNL     1      23.252  11.804  25.141  1.00  0.00     0.274 C 
ATOM     23  O   UNL     1      24.099  10.923  25.210  1.00  0.00    -0.267 OA
ATOM     24  H   UNL     1      22.166  13.124  24.068  1.00  0.00     0.170 HD
BRANCH  22  25
ATOM     25  C   UNL     1      22.489  12.183  26.355  1.00  0.00     0.128 A 
ATOM     26  N   UNL     1      23.155  12.884  27.278  1.00  0.00    -0.248 NA
ATOM     27  C   UNL     1      21.160  11.818  26.478  1.00  0.00     0.037 A 
ATOM     28  C   UNL     1      22.486  13.235  28.389  1.00  0.00     0.151 A 
ATOM     29  C   UNL     1      20.496  12.199  27.631  1.00  0.00     0.043 A 
ATOM     30  C   UNL     1      21.165  12.914  28.605  1.00  0.00     0.141 A 
ATOM     31  F   UNL     1      20.560  13.314  29.737  1.00  0.00    -0.205 F 
ENDBRANCH  22  25
ENDBRANCH   3  21
TORSDOF 3
ENDMDL
MODEL 5
REMARK VINA RESULT:    -8.369      3.569      8.531
REMARK INTER + INTRA:         -10.099
REMARK INTER:                 -10.458
REMARK INTRA:                   0.359
REMARK UNBOUND:                -0.262
REMARK SMILES CN1C(N)=N[C@](C)(c2cc(NC(=O)c3ccc(F)cn3)ccc2F)CS1(=O)=O
REMARK SMILES IDX 8 1 9 2 10 3 21 4 22 5 23 6 24 7 6 8 25 9 5 10 26 11 3 12
REMARK SMILES IDX 27 13 2 14 28 15 4 16 7 17 1 18 11 21 12 22 13 23 14 25
REMARK SMILES IDX 20 26 15 27 19 28 16 29 17 30 18 31
REMARK H PARENT 4 19 4 20 11 24
ROOT
ATOM      1  C   UNL     1      21.021  12.093  27.336  1.00  0.00     0.018 A 
ATOM      2  C   UNL     1      21.614  11.999  26.078  1.00  0.00     0.035 A 
ATOM      3  C   UNL     1      22.769  12.676  25.756  1.00  0.00     0.042 A 
ATOM      4  C   UNL     1      23.379  13.508  26.686  1.00  0.00     0.029 A 
ATOM      5  C   UNL     1      22.806  13.611  27.942  1.00  0.00     0.042 A 
ATOM      6  C   UNL     1      21.665  12.901  28.261  1.00  0.00     0.129 A 
ATOM      7  F   UNL     1      21.139  12.996  29.509  1.00  0.00    -0.207 F 
ENDROOT
BRANCH   1   8
ATOM      8  C   UNL     1      19.747  11.330  27.662  1.00  0.00     0.105 C 
ATOM      9  C   UNL     1      18.914  10.931  26.464  1.00  0.00     0.195 C 
ATOM     10  N   UNL     1      18.917  12.037  28.636  1.00  0.00    -0.240 NA
ATOM     11  S   UNL     1      18.313  12.367  25.612  1.00  0.00     0.239 S 
ATOM     12  C   UNL     1      18.123  13.000  28.283  1.00  0.00     0.205 C 
ATOM     13  O   UNL     1      17.076  11.975  24.961  1.00  0.00    -0.206 OA
ATOM     14  N   UNL     1      17.892  13.377  26.941  1.00  0.00    -0.243 N 
ATOM     15  O   UNL     1      19.371  13.078  24.964  1.00  0.00    -0.206 OA
ATOM     16  N   UNL     1      17.408  13.729  29.195  1.00  0.00    -0.369 N 
ATOM     17  C   UNL     1      20.118  10.040  28.400  1.00  0.00     0.044 C 
ATOM     18  C   UNL     1      17.084  14.553  26.563  1.00  0.00     0.167 C 
ATOM     19  H   UNL     1      17.501  13.541  30.157  1.00  0.00     0.159 HD
ATOM     20  H   UNL     1      16.801  14.441  28.890  1.00  0.00     0.159 HD
ENDBRANCH   1   8
BRANCH   3  21
ATOM     21  N   UNL     1      23.260  12.498  24.456  1.00  0.00    -0.321 N 
ATOM     22  C   UNL     1      23.174  13.364  23.381  1.00  0.00     0.274 C 
ATOM     23  O   UNL     1      22.524  14.401  23.362  1.00  0.00    -0.267 OA
ATOM     24  H   UNL     1      23.726  11.647  24.287  1.00  0.00     0.170 HD
BRANCH  22  25
ATOM     25  C   UNL     1      23.977  12.981  22.194  1.00  0.00     0.128 A 
ATOM     26  N   UNL     1      25.191  12.477  22.436  1.00  0.00    -0.248 NA
ATOM     27  C   UNL     1      23.452  13.144  20.923  1.00  0.00     0.037 A 
ATOM     28  C   UNL     1      25.938  12.127  21.377  1.00  0.00     0.151 A 
ATOM     29  C   UNL     1      24.244  12.769  19.852  1.00  0.00     0.043 A 
ATOM     30  C   UNL     1      25.507  12.257  20.076  1.00  0.00     0.141 A 
ATOM     31  F   UNL     1      26.307  11.871  19.068  1.00  0.00    -0.205 F 
ENDBRANCH  22  25
ENDBRANCH   3  21
TORSDOF 3
ENDMDL
MODEL 6
REMARK VINA RESULT:    -8.359      3.578      7.188
REMARK INTER + INTRA:         -10.088
REMARK INTER:                 -10.397
REMARK INTRA:                   0.309
REMARK UNBOUND:                -0.262
REMARK SMILES CN1C(N)=N[C@](C)(c2cc(NC(=O)c3ccc(F)cn3)ccc2F)CS1(=O)=O
REMARK SMILES IDX 8 1 9 2 10 3 21 4 22 5 23 6 24 7 6 8 25 9 5 10 26 11 3 12
REMARK SMILES IDX 27 13 2 14 28 15 4 16 7 17 1 18 11 21 12 22 13 23 14 25
REMARK SMILES IDX 20 26 15 27 19 28 16 29 17 30 18 31
REMARK H PARENT 4 19 4 20 11 24
ROOT
ATOM      1  C   UNL     1      26.098  12.437  21.130  1.00  0.00     0.018 A 
ATOM      2  C   UNL     1      26.957  13.308  21.800  1.00  0.00     0.035 A 
ATOM      3  C   UNL     1      28.296  13.037  21.968  1.00  0.00     0.042 A 
ATOM      4  C   UNL     1      28.840  11.853  21.485  1.00  0.00     0.029 A 
ATOM      5  C   UNL     1      28.004  10.979  20.814  1.00  0.00     0.042 A 
ATOM      6  C   UNL     1      26.669  11.279  20.625  1.00  0.00     0.129 A 
ATOM      7  F   UNL     1      25.876  10.418  19.937  1.00  0.00    -0.207 F 
ENDROOT
BRANCH   1   8
ATOM      8  C   UNL     1      24.624  12.767  20.958  1.00  0.00     0.105 C 
ATOM      9  C   UNL     1      24.044  13.681  22.014  1.00  0.00     0.195 C 
ATOM     10  N   UNL     1      23.804  11.563  20.831  1.00  0.00    -0.240 NA
ATOM     11  S   UNL     1      24.097  12.908  23.611  1.00  0.00     0.239 S 
ATOM     12  C   UNL     1      23.422  10.886  21.870  1.00  0.00     0.205 C 
ATOM     13  O   UNL     1      23.005  13.474  24.382  1.00  0.00    -0.206 OA
ATOM     14  N   UNL     1      23.650  11.296  23.202  1.00  0.00    -0.243 N 
ATOM     15  O   UNL     1      25.438  12.779  24.091  1.00  0.00    -0.206 OA
ATOM     16  N   UNL     1      22.729   9.710  21.762  1.00  0.00    -0.369 N 
ATOM     17  C   UNL     1      24.426  13.460  19.607  1.00  0.00     0.044 C 
ATOM     18  C   UNL     1      23.319  10.456  24.371  1.00  0.00     0.167 C 
ATOM     19  H   UNL     1      22.521   9.342  20.873  1.00  0.00     0.159 HD
ATOM     20  H   UNL     1      22.439   9.232  22.573  1.00  0.00     0.159 HD
ENDBRANCH   1   8
BRANCH   3  21
ATOM     21  N   UNL     1      29.048  13.993  22.663  1.00  0.00    -0.321 N 
ATOM     22  C   UNL     1      29.283  14.075  24.023  1.00  0.00     0.274 C 
ATOM     23  O   UNL     1      28.750  13.375  24.874  1.00  0.00    -0.267 OA
ATOM     24  H   UNL     1      29.461  14.697  22.112  1.00  0.00     0.170 HD
BRANCH  22  25
ATOM     25  C   UNL     1      30.294  15.081  24.432  1.00  0.00     0.128 A 
ATOM     26  N   UNL     1      31.536  14.893  23.975  1.00  0.00    -0.248 NA
ATOM     27  C   UNL     1      29.923  16.147  25.233  1.00  0.00     0.037 A 
ATOM     28  C   UNL     1      32.470  15.789  24.335  1.00  0.00     0.151 A 
ATOM     29  C   UNL     1      30.906  17.057  25.582  1.00  0.00     0.043 A 
ATOM     30  C   UNL     1      32.200  16.877  25.134  1.00  0.00     0.141 A 
ATOM     31  F   UNL     1      33.185  17.739  25.439  1.00  0.00    -0.205 F 
ENDBRANCH  22  25
ENDBRANCH   3  21
TORSDOF 3
ENDMDL
MODEL 7
REMARK VINA RESULT:    -8.130      2.740      3.269
REMARK INTER + INTRA:          -9.818
REMARK INTER:                 -10.126
REMARK INTRA:                   0.308
REMARK UNBOUND:                -0.262
REMARK SMILES CN1C(N)=N[C@](C)(c2cc(NC(=O)c3ccc(F)cn3)ccc2F)CS1(=O)=O
REMARK SMILES IDX 8 1 9 2 10 3 21 4 22 5 23 6 24 7 6 8 25 9 5 10 26 11 3 12
REMARK SMILES IDX 27 13 2 14 28 15 4 16 7 17 1 18 11 21 12 22 13 23 14 25
REMARK SMILES IDX 20 26 15 27 19 28 16 29 17 30 18 31
REMARK H PARENT 4 19 4 20 11 24
ROOT
ATOM      1  C   UNL     1      26.566  13.713  22.927  1.00  0.00     0.018 A 
ATOM      2  C   UNL     1      25.707  13.131  23.858  1.00  0.00     0.035 A 
ATOM      3  C   UNL     1      24.342  13.300  23.805  1.00  0.00     0.042 A 
ATOM      4  C   UNL     1      23.768  14.088  22.815  1.00  0.00     0.029 A 
ATOM      5  C   UNL     1      24.605  14.670  21.880  1.00  0.00     0.042 A 
ATOM      6  C   UNL     1      25.971  14.466  21.927  1.00  0.00     0.129 A 
ATOM      7  F   UNL     1      26.768  15.025  20.980  1.00  0.00    -0.207 F 
ENDROOT
BRANCH   1   8
ATOM      8  C   UNL     1      28.071  13.505  23.010  1.00  0.00     0.105 C 
ATOM      9  C   UNL     1      28.598  13.186  24.391  1.00  0.00     0.195 C 
ATOM     10  N   UNL     1      28.812  14.628  22.437  1.00  0.00    -0.240 NA
ATOM     11  S   UNL     1      28.320  14.545  25.498  1.00  0.00     0.239 S 
ATOM     12  C   UNL     1      29.032  15.714  23.111  1.00  0.00     0.205 C 
ATOM     13  O   UNL     1      29.361  14.476  26.508  1.00  0.00    -0.206 OA
ATOM     14  N   UNL     1      28.692  15.876  24.473  1.00  0.00    -0.243 N 
ATOM     15  O   UNL     1      26.930  14.714  25.787  1.00  0.00    -0.206 OA
ATOM     16  N   UNL     1      29.646  16.806  22.558  1.00  0.00    -0.369 N 
ATOM     17  C   UNL     1      28.460  12.337  22.099  1.00  0.00     0.044 C 
ATOM     18  C   UNL     1      28.836  17.158  25.191  1.00  0.00     0.167 C 
ATOM     19  H   UNL     1      29.922  16.789  21.613  1.00  0.00     0.159 HD
ATOM     20  H   UNL     1      29.814  17.607  23.106  1.00  0.00     0.159 HD
ENDBRANCH   1   8
BRANCH   3  21
ATOM     21  N   UNL     1      23.592  12.663  24.803  1.00  0.00    -0.321 N 
ATOM     22  C   UNL     1      23.317  13.109  26.083  1.00  0.00     0.274 C 
ATOM     23  O   UNL     1      23.807  14.103  26.604  1.00  0.00    -0.267 OA
ATOM     24  H   UNL     1      23.212  11.788  24.562  1.00  0.00     0.170 HD
BRANCH  22  25
ATOM     25  C   UNL     1      22.319  12.307  26.832  1.00  0.00     0.128 A 
ATOM     26  N   UNL     1      22.644  11.977  28.086  1.00  0.00    -0.248 NA
ATOM     27  C   UNL     1      21.124  11.953  26.229  1.00  0.00     0.037 A 
ATOM     28  C   UNL     1      21.757  11.247  28.783  1.00  0.00     0.151 A 
ATOM     29  C   UNL     1      20.229  11.206  26.974  1.00  0.00     0.043 A 
ATOM     30  C   UNL     1      20.546  10.842  28.268  1.00  0.00     0.141 A 
ATOM     31  F   UNL     1      19.704  10.126  29.033  1.00  0.00    -0.205 F 
ENDBRANCH  22  25
ENDBRANCH   3  21
TORSDOF 3
ENDMDL
MODEL 8
REMARK VINA RESULT:    -8.128      2.599      3.934
REMARK INTER + INTRA:          -9.816
REMARK INTER:                  -9.808
REMARK INTRA:                  -0.008
REMARK UNBOUND:                -0.262
REMARK SMILES CN1C(N)=N[C@](C)(c2cc(NC(=O)c3ccc(F)cn3)ccc2F)CS1(=O)=O
REMARK SMILES IDX 8 1 9 2 10 3 21 4 22 5 23 6 24 7 6 8 25 9 5 10 26 11 3 12
REMARK SMILES IDX 27 13 2 14 28 15 4 16 7 17 1 18 11 21 12 22 13 23 14 25
REMARK SMILES IDX 20 26 15 27 19 28 16 29 17 30 18 31
REMARK H PARENT 4 19 4 20 11 24
ROOT
ATOM      1  C   UNL     1      26.946  12.943  22.979  1.00  0.00     0.018 A 
ATOM      2  C   UNL     1      25.708  12.699  23.572  1.00  0.00     0.035 A 
ATOM      3  C   UNL     1      25.406  13.122  24.847  1.00  0.00     0.042 A 
ATOM      4  C   UNL     1      26.352  13.800  25.606  1.00  0.00     0.029 A 
ATOM      5  C   UNL     1      27.585  14.054  25.032  1.00  0.00     0.042 A 
ATOM      6  C   UNL     1      27.863  13.652  23.740  1.00  0.00     0.129 A 
ATOM      7  F   UNL     1      29.071  13.939  23.190  1.00  0.00    -0.207 F 
ENDROOT
BRANCH   1   8
ATOM      8  C   UNL     1      27.248  12.465  21.568  1.00  0.00     0.105 C 
ATOM      9  C   UNL     1      27.364  13.561  20.531  1.00  0.00     0.195 C 
ATOM     10  N   UNL     1      26.300  11.447  21.118  1.00  0.00    -0.240 NA
ATOM     11  S   UNL     1      25.818  14.411  20.342  1.00  0.00     0.239 S 
ATOM     12  C   UNL     1      25.134  11.763  20.646  1.00  0.00     0.205 C 
ATOM     13  O   UNL     1      25.790  14.924  18.984  1.00  0.00    -0.206 OA
ATOM     14  N   UNL     1      24.715  13.092  20.412  1.00  0.00    -0.243 N 
ATOM     15  O   UNL     1      25.498  15.186  21.500  1.00  0.00    -0.206 OA
ATOM     16  N   UNL     1      24.203  10.819  20.305  1.00  0.00    -0.369 N 
ATOM     17  C   UNL     1      28.582  11.712  21.576  1.00  0.00     0.044 C 
ATOM     18  C   UNL     1      23.343  13.441  19.993  1.00  0.00     0.167 C 
ATOM     19  H   UNL     1      24.403   9.863  20.431  1.00  0.00     0.159 HD
ATOM     20  H   UNL     1      23.335  11.095  19.932  1.00  0.00     0.159 HD
ENDBRANCH   1   8
BRANCH   3  21
ATOM     21  N   UNL     1      24.127  12.810  25.325  1.00  0.00    -0.321 N 
ATOM     22  C   UNL     1      22.902  13.101  24.752  1.00  0.00     0.274 C 
ATOM     23  O   UNL     1      22.737  13.811  23.768  1.00  0.00    -0.267 OA
ATOM     24  H   UNL     1      24.096  12.320  26.179  1.00  0.00     0.170 HD
BRANCH  22  25
ATOM     25  C   UNL     1      21.733  12.452  25.392  1.00  0.00     0.128 A 
ATOM     26  N   UNL     1      20.551  13.054  25.217  1.00  0.00    -0.248 NA
ATOM     27  C   UNL     1      21.900  11.282  26.112  1.00  0.00     0.037 A 
ATOM     28  C   UNL     1      19.478  12.487  25.791  1.00  0.00     0.151 A 
ATOM     29  C   UNL     1      20.774  10.719  26.687  1.00  0.00     0.043 A 
ATOM     30  C   UNL     1      19.544  11.328  26.531  1.00  0.00     0.141 A 
ATOM     31  F   UNL     1      18.422  10.813  27.062  1.00  0.00    -0.205 F 
ENDBRANCH  22  25
ENDBRANCH   3  21
TORSDOF 3
ENDMDL
MODEL 9
REMARK VINA RESULT:    -7.928      1.873      2.471
REMARK INTER + INTRA:          -9.581
REMARK INTER:                 -10.464
REMARK INTRA:                   0.883
REMARK UNBOUND:                -0.262
REMARK SMILES CN1C(N)=N[C@](C)(c2cc(NC(=O)c3ccc(F)cn3)ccc2F)CS1(=O)=O
REMARK SMILES IDX 8 1 9 2 10 3 21 4 22 5 23 6 24 7 6 8 25 9 5 10 26 11 3 12
REMARK SMILES IDX 27 13 2 14 28 15 4 16 7 17 1 18 11 21 12 22 13 23 14 25
REMARK SMILES IDX 20 26 15 27 19 28 16 29 17 30 18 31
REMARK H PARENT 4 19 4 20 11 24
ROOT
ATOM      1  C   UNL     1      25.594  11.666  21.236  1.00  0.00     0.018 A 
ATOM      2  C   UNL     1      25.101  11.776  22.535  1.00  0.00     0.035 A 
ATOM      3  C   UNL     1      23.841  11.345  22.884  1.00  0.00     0.042 A 
ATOM      4  C   UNL     1      22.996  10.795  21.928  1.00  0.00     0.029 A 
ATOM      5  C   UNL     1      23.470  10.674  20.634  1.00  0.00     0.042 A 
ATOM      6  C   UNL     1      24.748  11.082  20.305  1.00  0.00     0.129 A 
ATOM      7  F   UNL     1      25.199  10.925  19.034  1.00  0.00    -0.207 F 
ENDROOT
BRANCH   1   8
ATOM      8  C   UNL     1      26.992  12.149  20.882  1.00  0.00     0.105 C 
ATOM      9  C   UNL     1      27.718  12.876  21.992  1.00  0.00     0.195 C 
ATOM     10  N   UNL     1      27.001  12.955  19.663  1.00  0.00    -0.240 NA
ATOM     11  S   UNL     1      26.872  14.378  22.416  1.00  0.00     0.239 S 
ATOM     12  C   UNL     1      26.686  14.214  19.675  1.00  0.00     0.205 C 
ATOM     13  O   UNL     1      27.878  15.289  22.932  1.00  0.00    -0.206 OA
ATOM     14  N   UNL     1      26.422  14.946  20.854  1.00  0.00    -0.243 N 
ATOM     15  O   UNL     1      25.621  14.115  23.057  1.00  0.00    -0.206 OA
ATOM     16  N   UNL     1      26.605  14.958  18.529  1.00  0.00    -0.369 N 
ATOM     17  C   UNL     1      27.851  10.940  20.501  1.00  0.00     0.044 C 
ATOM     18  C   UNL     1      25.944  16.343  20.844  1.00  0.00     0.167 C 
ATOM     19  H   UNL     1      26.772  14.536  17.656  1.00  0.00     0.159 HD
ATOM     20  H   UNL     1      26.380  15.916  18.579  1.00  0.00     0.159 HD
ENDBRANCH   1   8
BRANCH   3  21
ATOM     21  N   UNL     1      23.468  11.517  24.223  1.00  0.00    -0.321 N 
ATOM     22  C   UNL     1      22.719  12.539  24.780  1.00  0.00     0.274 C 
ATOM     23  O   UNL     1      22.363  13.552  24.192  1.00  0.00    -0.267 OA
ATOM     24  H   UNL     1      23.777  10.822  24.848  1.00  0.00     0.170 HD
BRANCH  22  25
ATOM     25  C   UNL     1      22.312  12.330  26.191  1.00  0.00     0.128 A 
ATOM     26  N   UNL     1      22.492  13.364  27.019  1.00  0.00    -0.248 NA
ATOM     27  C   UNL     1      21.770  11.118  26.581  1.00  0.00     0.037 A 
ATOM     28  C   UNL     1      22.135  13.197  28.303  1.00  0.00     0.151 A 
ATOM     29  C   UNL     1      21.406  10.978  27.909  1.00  0.00     0.043 A 
ATOM     30  C   UNL     1      21.593  12.028  28.787  1.00  0.00     0.141 A 
ATOM     31  F   UNL     1      21.247  11.942  30.083  1.00  0.00    -0.205 F 
ENDBRANCH  22  25
ENDBRANCH   3  21
TORSDOF 3
ENDMDL
MODEL 10
REMARK VINA RESULT:    -7.524      2.617      3.972
REMARK INTER + INTRA:          -9.106
REMARK INTER:                  -9.693
REMARK INTRA:                   0.588
REMARK UNBOUND:                -0.262
REMARK SMILES CN1C(N)=N[C@](C)(c2cc(NC(=O)c3ccc(F)cn3)ccc2F)CS1(=O)=O
REMARK SMILES IDX 8 1 9 2 10 3 21 4 22 5 23 6 24 7 6 8 25 9 5 10 26 11 3 12
REMARK SMILES IDX 27 13 2 14 28 15 4 16 7 17 1 18 11 21 12 22 13 23 14 25
REMARK SMILES IDX 20 26 15 27 19 28 16 29 17 30 18 31
REMARK H PARENT 4 19 4 20 11 24
ROOT
ATOM      1  C   UNL     1      25.927  14.018  22.874  1.00  0.00     0.018 A 
ATOM      2  C   UNL     1      24.876  13.954  23.788  1.00  0.00     0.035 A 
ATOM      3  C   UNL     1      25.087  13.869  25.146  1.00  0.00     0.042 A 
ATOM      4  C   UNL     1      26.378  13.821  25.656  1.00  0.00     0.029 A 
ATOM      5  C   UNL     1      27.433  13.887  24.763  1.00  0.00     0.042 A 
ATOM      6  C   UNL     1      27.207  14.004  23.406  1.00  0.00     0.129 A 
ATOM      7  F   UNL     1      28.259  14.097  22.553  1.00  0.00    -0.207 F 
ENDROOT
BRANCH   1   8
ATOM      8  C   UNL     1      25.662  14.114  21.379  1.00  0.00     0.105 C 
ATOM      9  C   UNL     1      24.243  13.802  20.959  1.00  0.00     0.195 C 
ATOM     10  N   UNL     1      26.604  13.311  20.602  1.00  0.00    -0.240 NA
ATOM     11  S   UNL     1      23.835  12.115  21.328  1.00  0.00     0.239 S 
ATOM     12  C   UNL     1      26.439  12.034  20.440  1.00  0.00     0.205 C 
ATOM     13  O   UNL     1      22.823  11.713  20.368  1.00  0.00    -0.206 OA
ATOM     14  N   UNL     1      25.300  11.326  20.885  1.00  0.00    -0.243 N 
ATOM     15  O   UNL     1      23.740  11.892  22.737  1.00  0.00    -0.206 OA
ATOM     16  N   UNL     1      27.358  11.255  19.790  1.00  0.00    -0.369 N 
ATOM     17  C   UNL     1      25.964  15.542  20.915  1.00  0.00     0.044 C 
ATOM     18  C   UNL     1      25.184   9.857  20.804  1.00  0.00     0.167 C 
ATOM     19  H   UNL     1      28.187  11.658  19.443  1.00  0.00     0.159 HD
ATOM     20  H   UNL     1      27.191  10.292  19.670  1.00  0.00     0.159 HD
ENDBRANCH   1   8
BRANCH   3  21
ATOM     21  N   UNL     1      23.945  13.808  25.955  1.00  0.00    -0.321 N 
ATOM     22  C   UNL     1      23.225  12.691  26.340  1.00  0.00     0.274 C 
ATOM     23  O   UNL     1      23.406  11.557  25.917  1.00  0.00    -0.267 OA
ATOM     24  H   UNL     1      23.612  14.671  26.294  1.00  0.00     0.170 HD
BRANCH  22  25
ATOM     25  C   UNL     1      22.189  12.930  27.374  1.00  0.00     0.128 A 
ATOM     26  N   UNL     1      20.974  12.432  27.122  1.00  0.00    -0.248 NA
ATOM     27  C   UNL     1      22.510  13.627  28.526  1.00  0.00     0.037 A 
ATOM     28  C   UNL     1      20.018  12.640  28.042  1.00  0.00     0.151 A 
ATOM     29  C   UNL     1      21.505  13.819  29.458  1.00  0.00     0.043 A 
ATOM     30  C   UNL     1      20.238  13.325  29.215  1.00  0.00     0.141 A 
ATOM     31  F   UNL     1      19.234  13.480  30.094  1.00  0.00    -0.205 F 
ENDBRANCH  22  25
ENDBRANCH   3  21
TORSDOF 3
ENDMDL
MODEL 11
REMARK VINA RESULT:    -7.375      3.587      8.747
REMARK INTER + INTRA:          -8.931
REMARK INTER:                  -9.526
REMARK INTRA:                   0.595
REMARK UNBOUND:                -0.262
REMARK SMILES CN1C(N)=N[C@](C)(c2cc(NC(=O)c3ccc(F)cn3)ccc2F)CS1(=O)=O
REMARK SMILES IDX 8 1 9 2 10 3 21 4 22 5 23 6 24 7 6 8 25 9 5 10 26 11 3 12
REMARK SMILES IDX 27 13 2 14 28 15 4 16 7 17 1 18 11 21 12 22 13 23 14 25
REMARK SMILES IDX 20 26 15 27 19 28 16 29 17 30 18 31
REMARK H PARENT 4 19 4 20 11 24
ROOT
ATOM      1  C   UNL     1      20.884  12.088  28.045  1.00  0.00     0.018 A 
ATOM      2  C   UNL     1      21.957  12.160  27.158  1.00  0.00     0.035 A 
ATOM      3  C   UNL     1      22.965  13.088  27.296  1.00  0.00     0.042 A 
ATOM      4  C   UNL     1      22.932  14.013  28.332  1.00  0.00     0.029 A 
ATOM      5  C   UNL     1      21.876  13.953  29.224  1.00  0.00     0.042 A 
ATOM      6  C   UNL     1      20.889  12.997  29.091  1.00  0.00     0.129 A 
ATOM      7  F   UNL     1      19.879  12.941  29.997  1.00  0.00    -0.207 F 
ENDROOT
BRANCH   1   8
ATOM      8  C   UNL     1      19.787  11.049  27.867  1.00  0.00     0.105 C 
ATOM      9  C   UNL     1      19.399  10.766  26.433  1.00  0.00     0.195 C 
ATOM     10  N   UNL     1      18.597  11.367  28.655  1.00  0.00    -0.240 NA
ATOM     11  S   UNL     1      18.706  12.213  25.673  1.00  0.00     0.239 S 
ATOM     12  C   UNL     1      17.711  12.219  28.238  1.00  0.00     0.205 C 
ATOM     13  O   UNL     1      17.800  11.745  24.640  1.00  0.00    -0.206 OA
ATOM     14  N   UNL     1      17.740  12.822  26.961  1.00  0.00    -0.243 N 
ATOM     15  O   UNL     1      19.693  13.229  25.476  1.00  0.00    -0.206 OA
ATOM     16  N   UNL     1      16.639  12.591  29.004  1.00  0.00    -0.369 N 
ATOM     17  C   UNL     1      20.257   9.725  28.474  1.00  0.00     0.044 C 
ATOM     18  C   UNL     1      16.797  13.880  26.549  1.00  0.00     0.167 C 
ATOM     19  H   UNL     1      16.531  12.224  29.911  1.00  0.00     0.159 HD
ATOM     20  H   UNL     1      15.976  13.226  28.648  1.00  0.00     0.159 HD
ENDBRANCH   1   8
BRANCH   3  21
ATOM     21  N   UNL     1      23.983  13.055  26.335  1.00  0.00    -0.321 N 
ATOM     22  C   UNL     1      23.861  12.976  24.959  1.00  0.00     0.274 C 
ATOM     23  O   UNL     1      22.814  12.787  24.355  1.00  0.00    -0.267 OA
ATOM     24  H   UNL     1      24.903  13.095  26.683  1.00  0.00     0.170 HD
BRANCH  22  25
ATOM     25  C   UNL     1      25.119  13.175  24.199  1.00  0.00     0.128 A 
ATOM     26  N   UNL     1      25.003  13.247  22.869  1.00  0.00    -0.248 NA
ATOM     27  C   UNL     1      26.323  13.285  24.873  1.00  0.00     0.037 A 
ATOM     28  C   UNL     1      26.130  13.423  22.159  1.00  0.00     0.151 A 
ATOM     29  C   UNL     1      27.466  13.472  24.114  1.00  0.00     0.043 A 
ATOM     30  C   UNL     1      27.374  13.538  22.737  1.00  0.00     0.141 A 
ATOM     31  F   UNL     1      28.454  13.728  21.960  1.00  0.00    -0.205 F 
ENDBRANCH  22  25
ENDBRANCH   3  21
TORSDOF 3
ENDMDL
MODEL 12
REMARK VINA RESULT:    -7.265      2.819      3.815
REMARK INTER + INTRA:          -8.801
REMARK INTER:                  -9.204
REMARK INTRA:                   0.403
REMARK UNBOUND:                -0.262
REMARK SMILES CN1C(N)=N[C@](C)(c2cc(NC(=O)c3ccc(F)cn3)ccc2F)CS1(=O)=O
REMARK SMILES IDX 8 1 9 2 10 3 21 4 22 5 23 6 24 7 6 8 25 9 5 10 26 11 3 12
REMARK SMILES IDX 27 13 2 14 28 15 4 16 7 17 1 18 11 21 12 22 13 23 14 25
REMARK SMILES IDX 20 26 15 27 19 28 16 29 17 30 18 31
REMARK H PARENT 4 19 4 20 11 24
ROOT
ATOM      1  C   UNL     1      26.780  14.083  23.219  1.00  0.00     0.018 A 
ATOM      2  C   UNL     1      25.458  13.680  23.403  1.00  0.00     0.035 A 
ATOM      3  C   UNL     1      24.887  13.574  24.651  1.00  0.00     0.042 A 
ATOM      4  C   UNL     1      25.632  13.850  25.790  1.00  0.00     0.029 A 
ATOM      5  C   UNL     1      26.945  14.255  25.627  1.00  0.00     0.042 A 
ATOM      6  C   UNL     1      27.495  14.387  24.367  1.00  0.00     0.129 A 
ATOM      7  F   UNL     1      28.776  14.815  24.233  1.00  0.00    -0.207 F 
ENDROOT
BRANCH   1   8
ATOM      8  C   UNL     1      27.381  14.193  21.826  1.00  0.00     0.105 C 
ATOM      9  C   UNL     1      26.667  13.398  20.756  1.00  0.00     0.195 C 
ATOM     10  N   UNL     1      28.808  13.877  21.818  1.00  0.00    -0.240 NA
ATOM     11  S   UNL     1      26.764  11.659  21.096  1.00  0.00     0.239 S 
ATOM     12  C   UNL     1      29.235  12.653  21.789  1.00  0.00     0.205 C 
ATOM     13  O   UNL     1      26.688  10.981  19.815  1.00  0.00    -0.206 OA
ATOM     14  N   UNL     1      28.391  11.529  21.645  1.00  0.00    -0.243 N 
ATOM     15  O   UNL     1      25.987  11.301  22.242  1.00  0.00    -0.206 OA
ATOM     16  N   UNL     1      30.566  12.341  21.870  1.00  0.00    -0.369 N 
ATOM     17  C   UNL     1      27.351  15.661  21.390  1.00  0.00     0.044 C 
ATOM     18  C   UNL     1      28.878  10.139  21.738  1.00  0.00     0.167 C 
ATOM     19  H   UNL     1      31.234  13.057  21.972  1.00  0.00     0.159 HD
ATOM     20  H   UNL     1      30.855  11.401  21.826  1.00  0.00     0.159 HD
ENDBRANCH   1   8
BRANCH   3  21
ATOM     21  N   UNL     1      23.551  13.156  24.697  1.00  0.00    -0.321 N 
ATOM     22  C   UNL     1      23.049  11.933  25.105  1.00  0.00     0.274 C 
ATOM     23  O   UNL     1      23.726  10.950  25.379  1.00  0.00    -0.267 OA
ATOM     24  H   UNL     1      22.884  13.817  24.400  1.00  0.00     0.170 HD
BRANCH  22  25
ATOM     25  C   UNL     1      21.574  11.867  25.240  1.00  0.00     0.128 A 
ATOM     26  N   UNL     1      20.921  13.033  25.192  1.00  0.00    -0.248 NA
ATOM     27  C   UNL     1      20.948  10.642  25.394  1.00  0.00     0.037 A 
ATOM     28  C   UNL     1      19.584  12.998  25.316  1.00  0.00     0.151 A 
ATOM     29  C   UNL     1      19.569  10.638  25.513  1.00  0.00     0.043 A 
ATOM     30  C   UNL     1      18.873  11.831  25.478  1.00  0.00     0.141 A 
ATOM     31  F   UNL     1      17.534  11.877  25.581  1.00  0.00    -0.205 F 
ENDBRANCH  22  25
ENDBRANCH   3  21
TORSDOF 3
ENDMDL
MODEL 13
REMARK VINA RESULT:    -7.173      2.891      4.010
REMARK INTER + INTRA:          -8.693
REMARK INTER:                  -8.433
REMARK INTRA:                  -0.260
REMARK UNBOUND:                -0.262
REMARK SMILES CN1C(N)=N[C@](C)(c2cc(NC(=O)c3ccc(F)cn3)ccc2F)CS1(=O)=O
REMARK SMILES IDX 8 1 9 2 10 3 21 4 22 5 23 6 24 7 6 8 25 9 5 10 26 11 3 12
REMARK SMILES IDX 27 13 2 14 28 15 4 16 7 17 1 18 11 21 12 22 13 23 14 25
REMARK SMILES IDX 20 26 15 27 19 28 16 29 17 30 18 31
REMARK H PARENT 4 19 4 20 11 24
ROOT
ATOM      1  C   UNL     1      27.514  13.385  23.480  1.00  0.00     0.018 A 
ATOM      2  C   UNL     1      26.157  13.099  23.625  1.00  0.00     0.035 A 
ATOM      3  C   UNL     1      25.473  13.345  24.793  1.00  0.00     0.042 A 
ATOM      4  C   UNL     1      26.131  13.876  25.895  1.00  0.00     0.029 A 
ATOM      5  C   UNL     1      27.478  14.170  25.769  1.00  0.00     0.042 A 
ATOM      6  C   UNL     1      28.144  13.947  24.580  1.00  0.00     0.129 A 
ATOM      7  F   UNL     1      29.458  14.271  24.473  1.00  0.00    -0.207 F 
ENDROOT
BRANCH   1   8
ATOM      8  C   UNL     1      28.241  13.104  22.175  1.00  0.00     0.105 C 
ATOM      9  C   UNL     1      29.182  14.196  21.717  1.00  0.00     0.195 C 
ATOM     10  N   UNL     1      27.318  12.753  21.097  1.00  0.00    -0.240 NA
ATOM     11  S   UNL     1      28.287  15.687  21.363  1.00  0.00     0.239 S 
ATOM     12  C   UNL     1      26.681  13.660  20.423  1.00  0.00     0.205 C 
ATOM     13  O   UNL     1      29.056  16.405  20.363  1.00  0.00    -0.206 OA
ATOM     14  N   UNL     1      26.897  15.048  20.574  1.00  0.00    -0.243 N 
ATOM     15  O   UNL     1      27.761  16.282  22.552  1.00  0.00    -0.206 OA
ATOM     16  N   UNL     1      25.748  13.343  19.472  1.00  0.00    -0.369 N 
ATOM     17  C   UNL     1      29.077  11.831  22.338  1.00  0.00     0.044 C 
ATOM     18  C   UNL     1      26.078  16.069  19.891  1.00  0.00     0.167 C 
ATOM     19  H   UNL     1      25.529  12.400  19.293  1.00  0.00     0.159 HD
ATOM     20  H   UNL     1      25.298  14.058  18.966  1.00  0.00     0.159 HD
ENDBRANCH   1   8
BRANCH   3  21
ATOM     21  N   UNL     1      24.113  13.009  24.807  1.00  0.00    -0.321 N 
ATOM     22  C   UNL     1      23.537  11.777  25.060  1.00  0.00     0.274 C 
ATOM     23  O   UNL     1      24.151  10.726  25.191  1.00  0.00    -0.267 OA
ATOM     24  H   UNL     1      23.487  13.744  24.613  1.00  0.00     0.170 HD
BRANCH  22  25
ATOM     25  C   UNL     1      22.062  11.786  25.211  1.00  0.00     0.128 A 
ATOM     26  N   UNL     1      21.464  12.979  25.124  1.00  0.00    -0.248 NA
ATOM     27  C   UNL     1      21.381  10.599  25.418  1.00  0.00     0.037 A 
ATOM     28  C   UNL     1      20.129  13.013  25.261  1.00  0.00     0.151 A 
ATOM     29  C   UNL     1      20.005  10.666  25.550  1.00  0.00     0.043 A 
ATOM     30  C   UNL     1      19.365  11.888  25.476  1.00  0.00     0.141 A 
ATOM     31  F   UNL     1      18.031  12.001  25.589  1.00  0.00    -0.205 F 
ENDBRANCH  22  25
ENDBRANCH   3  21
TORSDOF 3
ENDMDL
MODEL 14
REMARK VINA RESULT:    -7.170      2.479      3.599
REMARK INTER + INTRA:          -8.689
REMARK INTER:                  -9.236
REMARK INTRA:                   0.547
REMARK UNBOUND:                -0.262
REMARK SMILES CN1C(N)=N[C@](C)(c2cc(NC(=O)c3ccc(F)cn3)ccc2F)CS1(=O)=O
REMARK SMILES IDX 8 1 9 2 10 3 21 4 22 5 23 6 24 7 6 8 25 9 5 10 26 11 3 12
REMARK SMILES IDX 27 13 2 14 28 15 4 16 7 17 1 18 11 21 12 22 13 23 14 25
REMARK SMILES IDX 20 26 15 27 19 28 16 29 17 30 18 31
REMARK H PARENT 4 19 4 20 11 24
ROOT
ATOM      1  C   UNL     1      24.482  13.231  22.649  1.00  0.00     0.018 A 
ATOM      2  C   UNL     1      23.701  12.778  23.711  1.00  0.00     0.035 A 
ATOM      3  C   UNL     1      24.104  12.893  25.022  1.00  0.00     0.042 A 
ATOM      4  C   UNL     1      25.335  13.456  25.333  1.00  0.00     0.029 A 
ATOM      5  C   UNL     1      26.122  13.914  24.291  1.00  0.00     0.042 A 
ATOM      6  C   UNL     1      25.691  13.821  22.983  1.00  0.00     0.129 A 
ATOM      7  F   UNL     1      26.470  14.305  21.981  1.00  0.00    -0.207 F 
ENDROOT
BRANCH   1   8
ATOM      8  C   UNL     1      24.008  13.092  21.211  1.00  0.00     0.105 C 
ATOM      9  C   UNL     1      23.378  11.760  20.869  1.00  0.00     0.195 C 
ATOM     10  N   UNL     1      25.065  13.407  20.251  1.00  0.00    -0.240 NA
ATOM     11  S   UNL     1      24.562  10.447  21.028  1.00  0.00     0.239 S 
ATOM     12  C   UNL     1      25.970  12.538  19.924  1.00  0.00     0.205 C 
ATOM     13  O   UNL     1      24.149   9.403  20.109  1.00  0.00    -0.206 OA
ATOM     14  N   UNL     1      25.961  11.193  20.357  1.00  0.00    -0.243 N 
ATOM     15  O   UNL     1      24.918  10.220  22.394  1.00  0.00    -0.206 OA
ATOM     16  N   UNL     1      27.016  12.847  19.096  1.00  0.00    -0.369 N 
ATOM     17  C   UNL     1      22.957  14.170  20.930  1.00  0.00     0.044 C 
ATOM     18  C   UNL     1      27.062  10.250  20.078  1.00  0.00     0.167 C 
ATOM     19  H   UNL     1      27.109  13.761  18.742  1.00  0.00     0.159 HD
ATOM     20  H   UNL     1      27.674  12.156  18.855  1.00  0.00     0.159 HD
ENDBRANCH   1   8
BRANCH   3  21
ATOM     21  N   UNL     1      23.226  12.396  25.995  1.00  0.00    -0.321 N 
ATOM     22  C   UNL     1      22.689  13.058  27.084  1.00  0.00     0.274 C 
ATOM     23  O   UNL     1      23.006  14.181  27.452  1.00  0.00    -0.267 OA
ATOM     24  H   UNL     1      22.957  11.454  25.888  1.00  0.00     0.170 HD
BRANCH  22  25
ATOM     25  C   UNL     1      21.625  12.323  27.810  1.00  0.00     0.128 A 
ATOM     26  N   UNL     1      21.114  12.930  28.887  1.00  0.00    -0.248 NA
ATOM     27  C   UNL     1      21.208  11.083  27.357  1.00  0.00     0.037 A 
ATOM     28  C   UNL     1      20.152  12.281  29.563  1.00  0.00     0.151 A 
ATOM     29  C   UNL     1      20.211  10.443  28.071  1.00  0.00     0.043 A 
ATOM     30  C   UNL     1      19.675  11.044  29.194  1.00  0.00     0.141 A 
ATOM     31  F   UNL     1      18.700  10.465  29.914  1.00  0.00    -0.205 F 
ENDBRANCH  22  25
ENDBRANCH   3  21
TORSDOF 3
ENDMDL
MODEL 15
REMARK VINA RESULT:    -7.038      4.696      9.155
REMARK INTER + INTRA:          -8.535
REMARK INTER:                  -8.931
REMARK INTRA:                   0.396
REMARK UNBOUND:                -0.262
REMARK SMILES CN1C(N)=N[C@](C)(c2cc(NC(=O)c3ccc(F)cn3)ccc2F)CS1(=O)=O
REMARK SMILES IDX 8 1 9 2 10 3 21 4 22 5 23 6 24 7 6 8 25 9 5 10 26 11 3 12
REMARK SMILES IDX 27 13 2 14 28 15 4 16 7 17 1 18 11 21 12 22 13 23 14 25
REMARK SMILES IDX 20 26 15 27 19 28 16 29 17 30 18 31
REMARK H PARENT 4 19 4 20 11 24
ROOT
ATOM      1  C   UNL     1      18.543  12.013  26.377  1.00  0.00     0.018 A 
ATOM      2  C   UNL     1      19.595  12.450  25.574  1.00  0.00     0.035 A 
ATOM      3  C   UNL     1      20.856  12.685  26.076  1.00  0.00     0.042 A 
ATOM      4  C   UNL     1      21.118  12.512  27.429  1.00  0.00     0.029 A 
ATOM      5  C   UNL     1      20.086  12.076  28.240  1.00  0.00     0.042 A 
ATOM      6  C   UNL     1      18.835  11.813  27.717  1.00  0.00     0.129 A 
ATOM      7  F   UNL     1      17.847  11.357  28.530  1.00  0.00    -0.207 F 
ENDROOT
BRANCH   1   8
ATOM      8  C   UNL     1      17.162  11.759  25.792  1.00  0.00     0.105 C 
ATOM      9  C   UNL     1      16.700  12.777  24.775  1.00  0.00     0.195 C 
ATOM     10  N   UNL     1      16.148  11.592  26.832  1.00  0.00    -0.240 NA
ATOM     11  S   UNL     1      16.528  14.378  25.523  1.00  0.00     0.239 S 
ATOM     12  C   UNL     1      15.596  12.610  27.415  1.00  0.00     0.205 C 
ATOM     13  O   UNL     1      15.516  15.085  24.760  1.00  0.00    -0.206 OA
ATOM     14  N   UNL     1      15.822  13.952  27.035  1.00  0.00    -0.243 N 
ATOM     15  O   UNL     1      17.797  14.931  25.882  1.00  0.00    -0.206 OA
ATOM     16  N   UNL     1      14.711  12.469  28.451  1.00  0.00    -0.369 N 
ATOM     17  C   UNL     1      17.165  10.396  25.094  1.00  0.00     0.044 C 
ATOM     18  C   UNL     1      15.285  15.103  27.786  1.00  0.00     0.167 C 
ATOM     19  H   UNL     1      14.489  11.571  28.788  1.00  0.00     0.159 HD
ATOM     20  H   UNL     1      14.298  13.264  28.858  1.00  0.00     0.159 HD
ENDBRANCH   1   8
BRANCH   3  21
ATOM     21  N   UNL     1      21.823  13.125  25.162  1.00  0.00    -0.321 N 
ATOM     22  C   UNL     1      22.532  12.377  24.239  1.00  0.00     0.274 C 
ATOM     23  O   UNL     1      22.517  11.155  24.161  1.00  0.00    -0.267 OA
ATOM     24  H   UNL     1      22.023  14.089  25.179  1.00  0.00     0.170 HD
BRANCH  22  25
ATOM     25  C   UNL     1      23.332  13.162  23.268  1.00  0.00     0.128 A 
ATOM     26  N   UNL     1      23.961  14.238  23.751  1.00  0.00    -0.248 NA
ATOM     27  C   UNL     1      23.403  12.760  21.946  1.00  0.00     0.037 A 
ATOM     28  C   UNL     1      24.688  14.968  22.889  1.00  0.00     0.151 A 
ATOM     29  C   UNL     1      24.165  13.529  21.083  1.00  0.00     0.043 A 
ATOM     30  C   UNL     1      24.815  14.652  21.556  1.00  0.00     0.141 A 
ATOM     31  F   UNL     1      25.573  15.424  20.758  1.00  0.00    -0.205 F 
ENDBRANCH  22  25
ENDBRANCH   3  21
TORSDOF 3
ENDMDL
MODEL 16
REMARK VINA RESULT:    -7.022      4.657      8.765
REMARK INTER + INTRA:          -8.516
REMARK INTER:                  -8.133
REMARK INTRA:                  -0.383
REMARK UNBOUND:                -0.262
REMARK SMILES CN1C(N)=N[C@](C)(c2cc(NC(=O)c3ccc(F)cn3)ccc2F)CS1(=O)=O
REMARK SMILES IDX 8 1 9 2 10 3 21 4 22 5 23 6 24 7 6 8 25 9 5 10 26 11 3 12
REMARK SMILES IDX 27 13 2 14 28 15 4 16 7 17 1 18 11 21 12 22 13 23 14 25
REMARK SMILES IDX 20 26 15 27 19 28 16 29 17 30 18 31
REMARK H PARENT 4 19 4 20 11 24
ROOT
ATOM      1  C   UNL     1      26.970  14.528  20.606  1.00  0.00     0.018 A 
ATOM      2  C   UNL     1      28.176  15.124  20.971  1.00  0.00     0.035 A 
ATOM      3  C   UNL     1      28.494  16.416  20.620  1.00  0.00     0.042 A 
ATOM      4  C   UNL     1      27.616  17.174  19.855  1.00  0.00     0.029 A 
ATOM      5  C   UNL     1      26.412  16.599  19.487  1.00  0.00     0.042 A 
ATOM      6  C   UNL     1      26.093  15.313  19.874  1.00  0.00     0.129 A 
ATOM      7  F   UNL     1      24.893  14.783  19.524  1.00  0.00    -0.207 F 
ENDROOT
BRANCH   1   8
ATOM      8  C   UNL     1      26.646  13.099  21.013  1.00  0.00     0.105 C 
ATOM      9  C   UNL     1      25.341  12.925  21.758  1.00  0.00     0.195 C 
ATOM     10  N   UNL     1      27.738  12.480  21.762  1.00  0.00    -0.240 NA
ATOM     11  S   UNL     1      25.388  13.782  23.312  1.00  0.00     0.239 S 
ATOM     12  C   UNL     1      27.899  12.692  23.032  1.00  0.00     0.205 C 
ATOM     13  O   UNL     1      24.483  13.076  24.202  1.00  0.00    -0.206 OA
ATOM     14  N   UNL     1      26.991  13.426  23.828  1.00  0.00    -0.243 N 
ATOM     15  O   UNL     1      25.393  15.200  23.132  1.00  0.00    -0.206 OA
ATOM     16  N   UNL     1      28.967  12.191  23.727  1.00  0.00    -0.369 N 
ATOM     17  C   UNL     1      26.561  12.233  19.753  1.00  0.00     0.044 C 
ATOM     18  C   UNL     1      27.250  13.763  25.241  1.00  0.00     0.167 C 
ATOM     19  H   UNL     1      29.655  11.664  23.259  1.00  0.00     0.159 HD
ATOM     20  H   UNL     1      29.047  12.356  24.694  1.00  0.00     0.159 HD
ENDBRANCH   1   8
BRANCH   3  21
ATOM     21  N   UNL     1      29.739  16.895  21.048  1.00  0.00    -0.321 N 
ATOM     22  C   UNL     1      30.157  17.162  22.340  1.00  0.00     0.274 C 
ATOM     23  O   UNL     1      29.438  17.141  23.330  1.00  0.00    -0.267 OA
ATOM     24  H   UNL     1      30.402  17.062  20.339  1.00  0.00     0.170 HD
BRANCH  22  25
ATOM     25  C   UNL     1      31.602  17.456  22.490  1.00  0.00     0.128 A 
ATOM     26  N   UNL     1      32.309  17.552  21.359  1.00  0.00    -0.248 NA
ATOM     27  C   UNL     1      32.146  17.626  23.752  1.00  0.00     0.037 A 
ATOM     28  C   UNL     1      33.621  17.815  21.470  1.00  0.00     0.151 A 
ATOM     29  C   UNL     1      33.499  17.901  23.833  1.00  0.00     0.043 A 
ATOM     30  C   UNL     1      34.253  17.993  22.679  1.00  0.00     0.141 A 
ATOM     31  F   UNL     1      35.569  18.268  22.708  1.00  0.00    -0.205 F 
ENDBRANCH  22  25
ENDBRANCH   3  21
TORSDOF 3
ENDMDL
MODEL 17
REMARK VINA RESULT:    -6.950      3.691      7.244
REMARK INTER + INTRA:          -8.431
REMARK INTER:                  -8.001
REMARK INTRA:                  -0.431
REMARK UNBOUND:                -0.262
REMARK SMILES CN1C(N)=N[C@](C)(c2cc(NC(=O)c3ccc(F)cn3)ccc2F)CS1(=O)=O
REMARK SMILES IDX 8 1 9 2 10 3 21 4 22 5 23 6 24 7 6 8 25 9 5 10 26 11 3 12
REMARK SMILES IDX 27 13 2 14 28 15 4 16 7 17 1 18 11 21 12 22 13 23 14 25
REMARK SMILES IDX 20 26 15 27 19 28 16 29 17 30 18 31
REMARK H PARENT 4 19 4 20 11 24
ROOT
ATOM      1  C   UNL     1      24.565  13.525  23.090  1.00  0.00     0.018 A 
ATOM      2  C   UNL     1      25.851  14.040  23.245  1.00  0.00     0.035 A 
ATOM      3  C   UNL     1      26.464  14.133  24.474  1.00  0.00     0.042 A 
ATOM      4  C   UNL     1      25.797  13.729  25.624  1.00  0.00     0.029 A 
ATOM      5  C   UNL     1      24.521  13.212  25.489  1.00  0.00     0.042 A 
ATOM      6  C   UNL     1      23.931  13.095  24.245  1.00  0.00     0.129 A 
ATOM      7  F   UNL     1      22.689  12.558  24.137  1.00  0.00    -0.207 F 
ENDROOT
BRANCH   1   8
ATOM      8  C   UNL     1      23.916  13.433  21.717  1.00  0.00     0.105 C 
ATOM      9  C   UNL     1      23.406  12.060  21.341  1.00  0.00     0.195 C 
ATOM     10  N   UNL     1      24.786  13.951  20.663  1.00  0.00    -0.240 NA
ATOM     11  S   UNL     1      24.746  10.902  21.228  1.00  0.00     0.239 S 
ATOM     12  C   UNL     1      25.733  13.231  20.145  1.00  0.00     0.205 C 
ATOM     13  O   UNL     1      24.335   9.884  20.278  1.00  0.00    -0.206 OA
ATOM     14  N   UNL     1      25.941  11.868  20.453  1.00  0.00    -0.243 N 
ATOM     15  O   UNL     1      25.311  10.623  22.511  1.00  0.00    -0.206 OA
ATOM     16  N   UNL     1      26.611  13.733  19.222  1.00  0.00    -0.369 N 
ATOM     17  C   UNL     1      22.718  14.385  21.672  1.00  0.00     0.044 C 
ATOM     18  C   UNL     1      27.096  11.098  19.952  1.00  0.00     0.167 C 
ATOM     19  H   UNL     1      26.546  14.675  18.942  1.00  0.00     0.159 HD
ATOM     20  H   UNL     1      27.306  13.152  18.837  1.00  0.00     0.159 HD
ENDBRANCH   1   8
BRANCH   3  21
ATOM     21  N   UNL     1      27.757  14.671  24.492  1.00  0.00    -0.321 N 
ATOM     22  C   UNL     1      28.964  14.005  24.378  1.00  0.00     0.274 C 
ATOM     23  O   UNL     1      29.099  12.788  24.371  1.00  0.00    -0.267 OA
ATOM     24  H   UNL     1      27.814  15.648  24.598  1.00  0.00     0.170 HD
BRANCH  22  25
ATOM     25  C   UNL     1      30.155  14.875  24.220  1.00  0.00     0.128 A 
ATOM     26  N   UNL     1      30.735  15.296  25.348  1.00  0.00    -0.248 NA
ATOM     27  C   UNL     1      30.611  15.198  22.954  1.00  0.00     0.037 A 
ATOM     28  C   UNL     1      31.813  16.088  25.230  1.00  0.00     0.151 A 
ATOM     29  C   UNL     1      31.727  16.011  22.865  1.00  0.00     0.043 A 
ATOM     30  C   UNL     1      32.338  16.470  24.016  1.00  0.00     0.141 A 
ATOM     31  F   UNL     1      33.429  17.254  23.979  1.00  0.00    -0.205 F 
ENDBRANCH  22  25
ENDBRANCH   3  21
TORSDOF 3
ENDMDL
MODEL 18
REMARK VINA RESULT:    -6.941      4.150      9.067
REMARK INTER + INTRA:          -8.420
REMARK INTER:                  -8.212
REMARK INTRA:                  -0.208
REMARK UNBOUND:                -0.262
REMARK SMILES CN1C(N)=N[C@](C)(c2cc(NC(=O)c3ccc(F)cn3)ccc2F)CS1(=O)=O
REMARK SMILES IDX 8 1 9 2 10 3 21 4 22 5 23 6 24 7 6 8 25 9 5 10 26 11 3 12
REMARK SMILES IDX 27 13 2 14 28 15 4 16 7 17 1 18 11 21 12 22 13 23 14 25
REMARK SMILES IDX 20 26 15 27 19 28 16 29 17 30 18 31
REMARK H PARENT 4 19 4 20 11 24
ROOT
ATOM      1  C   UNL     1      26.427  14.392  22.666  1.00  0.00     0.018 A 
ATOM      2  C   UNL     1      26.668  15.042  21.456  1.00  0.00     0.035 A 
ATOM      3  C   UNL     1      27.891  15.592  21.147  1.00  0.00     0.042 A 
ATOM      4  C   UNL     1      28.939  15.536  22.058  1.00  0.00     0.029 A 
ATOM      5  C   UNL     1      28.719  14.892  23.263  1.00  0.00     0.042 A 
ATOM      6  C   UNL     1      27.496  14.316  23.546  1.00  0.00     0.129 A 
ATOM      7  F   UNL     1      27.315  13.664  24.723  1.00  0.00    -0.207 F 
ENDROOT
BRANCH   1   8
ATOM      8  C   UNL     1      25.065  13.791  22.977  1.00  0.00     0.105 C 
ATOM      9  C   UNL     1      25.067  12.301  23.237  1.00  0.00     0.195 C 
ATOM     10  N   UNL     1      24.074  14.122  21.955  1.00  0.00    -0.240 NA
ATOM     11  S   UNL     1      25.574  11.412  21.786  1.00  0.00     0.239 S 
ATOM     12  C   UNL     1      23.993  13.458  20.843  1.00  0.00     0.205 C 
ATOM     13  O   UNL     1      24.945  10.105  21.860  1.00  0.00    -0.206 OA
ATOM     14  N   UNL     1      24.755  12.302  20.561  1.00  0.00    -0.243 N 
ATOM     15  O   UNL     1      26.958  11.623  21.495  1.00  0.00    -0.206 OA
ATOM     16  N   UNL     1      23.129  13.812  19.842  1.00  0.00    -0.369 N 
ATOM     17  C   UNL     1      24.503  14.464  24.232  1.00  0.00     0.044 C 
ATOM     18  C   UNL     1      24.743  11.632  19.246  1.00  0.00     0.167 C 
ATOM     19  H   UNL     1      22.554  14.605  19.945  1.00  0.00     0.159 HD
ATOM     20  H   UNL     1      23.082  13.274  19.019  1.00  0.00     0.159 HD
ENDBRANCH   1   8
BRANCH   3  21
ATOM     21  N   UNL     1      28.000  16.219  19.899  1.00  0.00    -0.321 N 
ATOM     22  C   UNL     1      28.393  17.517  19.623  1.00  0.00     0.274 C 
ATOM     23  O   UNL     1      28.591  18.386  20.462  1.00  0.00    -0.267 OA
ATOM     24  H   UNL     1      27.767  15.665  19.119  1.00  0.00     0.170 HD
BRANCH  22  25
ATOM     25  C   UNL     1      28.611  17.821  18.188  1.00  0.00     0.128 A 
ATOM     26  N   UNL     1      29.875  18.043  17.814  1.00  0.00    -0.248 NA
ATOM     27  C   UNL     1      27.535  17.851  17.317  1.00  0.00     0.037 A 
ATOM     28  C   UNL     1      30.097  18.325  16.520  1.00  0.00     0.151 A 
ATOM     29  C   UNL     1      27.797  18.138  15.989  1.00  0.00     0.043 A 
ATOM     30  C   UNL     1      29.093  18.384  15.580  1.00  0.00     0.141 A 
ATOM     31  F   UNL     1      29.396  18.657  14.299  1.00  0.00    -0.205 F 
ENDBRANCH  22  25
ENDBRANCH   3  21
TORSDOF 3
ENDMDL
MODEL 19
REMARK VINA RESULT:    -6.890      3.684      8.233
REMARK INTER + INTRA:          -8.361
REMARK INTER:                  -8.480
REMARK INTRA:                   0.120
REMARK UNBOUND:                -0.262
REMARK SMILES CN1C(N)=N[C@](C)(c2cc(NC(=O)c3ccc(F)cn3)ccc2F)CS1(=O)=O
REMARK SMILES IDX 8 1 9 2 10 3 21 4 22 5 23 6 24 7 6 8 25 9 5 10 26 11 3 12
REMARK SMILES IDX 27 13 2 14 28 15 4 16 7 17 1 18 11 21 12 22 13 23 14 25
REMARK SMILES IDX 20 26 15 27 19 28 16 29 17 30 18 31
REMARK H PARENT 4 19 4 20 11 24
ROOT
ATOM      1  C   UNL     1      25.084  13.414  23.299  1.00  0.00     0.018 A 
ATOM      2  C   UNL     1      25.952  14.213  22.557  1.00  0.00     0.035 A 
ATOM      3  C   UNL     1      27.179  14.610  23.036  1.00  0.00     0.042 A 
ATOM      4  C   UNL     1      27.591  14.237  24.310  1.00  0.00     0.029 A 
ATOM      5  C   UNL     1      26.744  13.441  25.060  1.00  0.00     0.042 A 
ATOM      6  C   UNL     1      25.529  13.024  24.553  1.00  0.00     0.129 A 
ATOM      7  F   UNL     1      24.729  12.218  25.298  1.00  0.00    -0.207 F 
ENDROOT
BRANCH   1   8
ATOM      8  C   UNL     1      23.735  12.989  22.740  1.00  0.00     0.105 C 
ATOM      9  C   UNL     1      23.566  11.500  22.535  1.00  0.00     0.195 C 
ATOM     10  N   UNL     1      23.401  13.706  21.510  1.00  0.00    -0.240 NA
ATOM     11  S   UNL     1      24.710  10.901  21.317  1.00  0.00     0.239 S 
ATOM     12  C   UNL     1      23.873  13.341  20.358  1.00  0.00     0.205 C 
ATOM     13  O   UNL     1      24.096   9.734  20.710  1.00  0.00    -0.206 OA
ATOM     14  N   UNL     1      24.642  12.173  20.159  1.00  0.00    -0.243 N 
ATOM     15  O   UNL     1      26.058  10.944  21.793  1.00  0.00    -0.206 OA
ATOM     16  N   UNL     1      23.639  14.055  19.214  1.00  0.00    -0.369 N 
ATOM     17  C   UNL     1      22.636  13.436  23.707  1.00  0.00     0.044 C 
ATOM     18  C   UNL     1      25.276  11.838  18.868  1.00  0.00     0.167 C 
ATOM     19  H   UNL     1      23.111  14.885  19.250  1.00  0.00     0.159 HD
ATOM     20  H   UNL     1      23.998  13.737  18.353  1.00  0.00     0.159 HD
ENDBRANCH   1   8
BRANCH   3  21
ATOM     21  N   UNL     1      27.954  15.415  22.190  1.00  0.00    -0.321 N 
ATOM     22  C   UNL     1      29.320  15.627  22.223  1.00  0.00     0.274 C 
ATOM     23  O   UNL     1      30.073  15.232  23.104  1.00  0.00    -0.267 OA
ATOM     24  H   UNL     1      27.462  15.890  21.481  1.00  0.00     0.170 HD
BRANCH  22  25
ATOM     25  C   UNL     1      29.875  16.366  21.063  1.00  0.00     0.128 A 
ATOM     26  N   UNL     1      31.204  16.334  20.920  1.00  0.00    -0.248 NA
ATOM     27  C   UNL     1      29.024  17.029  20.196  1.00  0.00     0.037 A 
ATOM     28  C   UNL     1      31.730  16.999  19.878  1.00  0.00     0.151 A 
ATOM     29  C   UNL     1      29.596  17.700  19.129  1.00  0.00     0.043 A 
ATOM     30  C   UNL     1      30.967  17.693  18.966  1.00  0.00     0.141 A 
ATOM     31  F   UNL     1      31.566  18.322  17.941  1.00  0.00    -0.205 F 
ENDBRANCH  22  25
ENDBRANCH   3  21
TORSDOF 3
ENDMDL
MODEL 20
REMARK VINA RESULT:    -6.844      5.341      9.619
REMARK INTER + INTRA:          -8.307
REMARK INTER:                  -8.023
REMARK INTRA:                  -0.284
REMARK UNBOUND:                -0.262
REMARK SMILES CN1C(N)=N[C@](C)(c2cc(NC(=O)c3ccc(F)cn3)ccc2F)CS1(=O)=O
REMARK SMILES IDX 8 1 9 2 10 3 21 4 22 5 23 6 24 7 6 8 25 9 5 10 26 11 3 12
REMARK SMILES IDX 27 13 2 14 28 15 4 16 7 17 1 18 11 21 12 22 13 23 14 25
REMARK SMILES IDX 20 26 15 27 19 28 16 29 17 30 18 31
REMARK H PARENT 4 19 4 20 11 24
ROOT
ATOM      1  C   UNL     1      17.980  12.984  27.727  1.00  0.00     0.018 A 
ATOM      2  C   UNL     1      18.851  13.197  26.660  1.00  0.00     0.035 A 
ATOM      3  C   UNL     1      19.743  12.239  26.235  1.00  0.00     0.042 A 
ATOM      4  C   UNL     1      19.821  11.013  26.884  1.00  0.00     0.029 A 
ATOM      5  C   UNL     1      18.961  10.783  27.944  1.00  0.00     0.042 A 
ATOM      6  C   UNL     1      18.049  11.742  28.338  1.00  0.00     0.129 A 
ATOM      7  F   UNL     1      17.197  11.480  29.362  1.00  0.00    -0.207 F 
ENDROOT
BRANCH   1   8
ATOM      8  C   UNL     1      17.004  14.062  28.171  1.00  0.00     0.105 C 
ATOM      9  C   UNL     1      15.596  13.579  28.441  1.00  0.00     0.195 C 
ATOM     10  N   UNL     1      16.977  15.194  27.246  1.00  0.00    -0.240 NA
ATOM     11  S   UNL     1      14.852  12.953  26.956  1.00  0.00     0.239 S 
ATOM     12  C   UNL     1      16.281  15.163  26.152  1.00  0.00     0.205 C 
ATOM     13  O   UNL     1      13.419  13.140  27.100  1.00  0.00    -0.206 OA
ATOM     14  N   UNL     1      15.404  14.111  25.807  1.00  0.00    -0.243 N 
ATOM     15  O   UNL     1      15.465  11.733  26.534  1.00  0.00    -0.206 OA
ATOM     16  N   UNL     1      16.317  16.179  25.234  1.00  0.00    -0.369 N 
ATOM     17  C   UNL     1      17.519  14.692  29.468  1.00  0.00     0.044 C 
ATOM     18  C   UNL     1      14.714  14.031  24.505  1.00  0.00     0.167 C 
ATOM     19  H   UNL     1      16.899  16.958  25.385  1.00  0.00     0.159 HD
ATOM     20  H   UNL     1      15.760  16.130  24.423  1.00  0.00     0.159 HD
ENDBRANCH   1   8
BRANCH   3  21
ATOM     21  N   UNL     1      20.564  12.581  25.153  1.00  0.00    -0.321 N 
ATOM     22  C   UNL     1      21.899  12.946  25.171  1.00  0.00     0.274 C 
ATOM     23  O   UNL     1      22.558  13.155  26.181  1.00  0.00    -0.267 OA
ATOM     24  H   UNL     1      20.137  12.559  24.266  1.00  0.00     0.170 HD
BRANCH  22  25
ATOM     25  C   UNL     1      22.547  13.044  23.841  1.00  0.00     0.128 A 
ATOM     26  N   UNL     1      22.745  14.278  23.367  1.00  0.00    -0.248 NA
ATOM     27  C   UNL     1      22.919  11.893  23.167  1.00  0.00     0.037 A 
ATOM     28  C   UNL     1      23.326  14.392  22.162  1.00  0.00     0.151 A 
ATOM     29  C   UNL     1      23.521  12.043  21.930  1.00  0.00     0.043 A 
ATOM     30  C   UNL     1      23.726  13.308  21.413  1.00  0.00     0.141 A 
ATOM     31  F   UNL     1      24.315  13.503  20.221  1.00  0.00    -0.205 F 
ENDBRANCH  22  25
ENDBRANCH   3  21
TORSDOF 3
ENDMDL
