MODEL 1
REMARK VINA RESULT:    16.545      0.000      0.000
REMARK INTER + INTRA:          22.864
REMARK INTER:                  23.315
REMARK INTRA:                  -0.451
REMARK UNBOUND:                -0.451
REMARK SMILES Cc1ccc(NC(=O)c2ccc(CN3CCN(C)CC3)cc2)cc1Nc1nc(-c2cccnc2)cs1
REMARK SMILES IDX 6 1 7 2 8 3 5 5 2 6 3 7 24 8 4 9 23 10 1 11 25 12 26 14
REMARK SMILES IDX 27 15 36 16 28 17 35 18 29 19 30 20 34 21 31 22 33 23 32 24
REMARK SMILES IDX 9 25 10 26 22 27 11 28 21 29 12 30 13 31 14 32 15 33 20 34
REMARK SMILES IDX 16 35 19 36 17 37 18 38
REMARK H PARENT 6 4 25 13
ROOT
ATOM      1  N   UNL     1      30.550  27.679  45.889  1.00  0.00    -0.322 N 
ATOM      2  C   UNL     1      30.504  28.934  46.469  1.00  0.00     0.255 C 
ATOM      3  O   UNL     1      29.963  29.238  47.525  1.00  0.00    -0.269 OA
ATOM      4  H   UNL     1      31.162  27.570  45.092  1.00  0.00     0.170 HD
ENDROOT
BRANCH   1   5
ATOM      5  C   UNL     1      29.937  26.497  46.358  1.00  0.00     0.043 A 
ATOM      6  C   UNL     1      28.816  24.143  47.443  1.00  0.00    -0.027 A 
ATOM      7  C   UNL     1      29.963  24.715  48.009  1.00  0.00     0.008 A 
ATOM      8  C   UNL     1      28.246  24.739  46.303  1.00  0.00     0.045 A 
ATOM      9  C   UNL     1      30.515  25.881  47.472  1.00  0.00     0.026 A 
ATOM     10  C   UNL     1      28.812  25.914  45.775  1.00  0.00     0.052 A 
ATOM     11  C   UNL     1      28.247  22.889  48.047  1.00  0.00     0.046 C 
BRANCH   8  12
ATOM     12  N   UNL     1      27.114  24.165  45.675  1.00  0.00    -0.331 N 
ATOM     13  H   UNL     1      26.559  23.639  46.345  1.00  0.00     0.169 HD
BRANCH  12  14
ATOM     14  C   UNL     1      26.307  24.850  44.820  1.00  0.00     0.187 A 
ATOM     15  N   UNL     1      26.283  24.571  43.534  1.00  0.00    -0.220 NA
ATOM     16  S   UNL     1      25.259  26.147  45.274  1.00  0.00    -0.105 S 
ATOM     17  C   UNL     1      25.412  25.404  42.847  1.00  0.00     0.085 A 
ATOM     18  C   UNL     1      24.759  26.320  43.645  1.00  0.00     0.097 A 
BRANCH  17  19
ATOM     19  C   UNL     1      25.243  25.276  41.402  1.00  0.00     0.019 A 
ATOM     20  C   UNL     1      24.823  24.098  40.776  1.00  0.00     0.013 A 
ATOM     21  C   UNL     1      25.495  26.368  40.573  1.00  0.00     0.121 A 
ATOM     22  C   UNL     1      24.676  24.059  39.387  1.00  0.00     0.021 A 
ATOM     23  N   UNL     1      25.361  26.360  39.221  1.00  0.00    -0.264 NA
ATOM     24  C   UNL     1      24.954  25.204  38.661  1.00  0.00     0.111 A 
ENDBRANCH  17  19
ENDBRANCH  12  14
ENDBRANCH   8  12
ENDBRANCH   1   5
BRANCH   2  25
ATOM     25  C   UNL     1      31.247  29.987  45.722  1.00  0.00     0.040 A 
ATOM     26  C   UNL     1      31.928  29.626  44.556  1.00  0.00     0.014 A 
ATOM     27  C   UNL     1      31.289  31.314  46.170  1.00  0.00     0.014 A 
ATOM     28  C   UNL     1      32.618  30.592  43.822  1.00  0.00     0.006 A 
ATOM     29  C   UNL     1      31.985  32.278  45.435  1.00  0.00     0.006 A 
ATOM     30  C   UNL     1      32.645  31.929  44.247  1.00  0.00    -0.034 A 
BRANCH  30  31
ATOM     31  C   UNL     1      33.412  32.974  43.456  1.00  0.00     0.120 C 
BRANCH  31  32
ATOM     32  N   UNL     1      34.821  33.084  43.877  1.00  0.00    -0.297 NA
ATOM     33  C   UNL     1      35.677  33.430  42.727  1.00  0.00     0.100 C 
ATOM     34  C   UNL     1      35.309  31.823  44.488  1.00  0.00     0.100 C 
ATOM     35  C   UNL     1      35.837  32.321  41.651  1.00  0.00     0.099 C 
ATOM     36  C   UNL     1      36.088  30.858  43.553  1.00  0.00     0.099 C 
ATOM     37  N   UNL     1      35.640  30.950  42.158  1.00  0.00    -0.304 NA
ATOM     38  C   UNL     1      36.304  29.968  41.308  1.00  0.00     0.105 C 
ENDBRANCH  31  32
ENDBRANCH  30  31
ENDBRANCH   2  25
TORSDOF 7
ENDMDL
MODEL 2
REMARK VINA RESULT:    17.013      2.037      9.613
REMARK INTER + INTRA:          23.524
REMARK INTER:                  23.480
REMARK INTRA:                   0.044
REMARK UNBOUND:                -0.451
REMARK SMILES Cc1ccc(NC(=O)c2ccc(CN3CCN(C)CC3)cc2)cc1Nc1nc(-c2cccnc2)cs1
REMARK SMILES IDX 6 1 7 2 8 3 5 5 2 6 3 7 24 8 4 9 23 10 1 11 25 12 26 14
REMARK SMILES IDX 27 15 36 16 28 17 35 18 29 19 30 20 34 21 31 22 33 23 32 24
REMARK SMILES IDX 9 25 10 26 22 27 11 28 21 29 12 30 13 31 14 32 15 33 20 34
REMARK SMILES IDX 16 35 19 36 17 37 18 38
REMARK H PARENT 6 4 25 13
ROOT
ATOM      1  N   UNL     1      27.184  25.436  44.561  1.00  0.00    -0.322 N 
ATOM      2  C   UNL     1      25.860  25.829  44.648  1.00  0.00     0.255 C 
ATOM      3  O   UNL     1      25.279  26.242  45.644  1.00  0.00    -0.269 OA
ATOM      4  H   UNL     1      27.544  25.262  43.633  1.00  0.00     0.170 HD
ENDROOT
BRANCH   1   5
ATOM      5  C   UNL     1      28.127  25.371  45.608  1.00  0.00     0.043 A 
ATOM      6  C   UNL     1      30.013  25.062  47.687  1.00  0.00    -0.027 A 
ATOM      7  C   UNL     1      29.326  23.954  47.175  1.00  0.00     0.008 A 
ATOM      8  C   UNL     1      29.729  26.340  47.173  1.00  0.00     0.045 A 
ATOM      9  C   UNL     1      28.395  24.108  46.145  1.00  0.00     0.026 A 
ATOM     10  C   UNL     1      28.790  26.480  46.135  1.00  0.00     0.052 A 
ATOM     11  C   UNL     1      31.011  24.859  48.794  1.00  0.00     0.046 C 
BRANCH   8  12
ATOM     12  N   UNL     1      30.369  27.490  47.695  1.00  0.00    -0.331 N 
ATOM     13  H   UNL     1      31.214  27.233  48.200  1.00  0.00     0.169 HD
BRANCH  12  14
ATOM     14  C   UNL     1      30.572  28.625  46.973  1.00  0.00     0.187 A 
ATOM     15  N   UNL     1      31.627  28.760  46.197  1.00  0.00    -0.220 NA
ATOM     16  S   UNL     1      29.533  30.006  46.987  1.00  0.00    -0.105 S 
ATOM     17  C   UNL     1      31.647  30.000  45.575  1.00  0.00     0.085 A 
ATOM     18  C   UNL     1      30.572  30.806  45.886  1.00  0.00     0.097 A 
BRANCH  17  19
ATOM     19  C   UNL     1      32.741  30.365  44.679  1.00  0.00     0.019 A 
ATOM     20  C   UNL     1      33.378  31.610  44.707  1.00  0.00     0.013 A 
ATOM     21  C   UNL     1      33.208  29.446  43.741  1.00  0.00     0.121 A 
ATOM     22  C   UNL     1      34.425  31.879  43.823  1.00  0.00     0.021 A 
ATOM     23  N   UNL     1      34.223  29.679  42.868  1.00  0.00    -0.264 NA
ATOM     24  C   UNL     1      34.807  30.892  42.931  1.00  0.00     0.111 A 
ENDBRANCH  17  19
ENDBRANCH  12  14
ENDBRANCH   8  12
ENDBRANCH   1   5
BRANCH   2  25
ATOM     25  C   UNL     1      25.114  25.777  43.360  1.00  0.00     0.040 A 
ATOM     26  C   UNL     1      25.694  25.110  42.277  1.00  0.00     0.014 A 
ATOM     27  C   UNL     1      23.863  26.391  43.211  1.00  0.00     0.014 A 
ATOM     28  C   UNL     1      25.013  25.026  41.062  1.00  0.00     0.006 A 
ATOM     29  C   UNL     1      23.186  26.309  41.991  1.00  0.00     0.006 A 
ATOM     30  C   UNL     1      23.748  25.615  40.909  1.00  0.00    -0.034 A 
BRANCH  30  31
ATOM     31  C   UNL     1      23.018  25.537  39.580  1.00  0.00     0.120 C 
BRANCH  31  32
ATOM     32  N   UNL     1      23.789  26.131  38.472  1.00  0.00    -0.297 NA
ATOM     33  C   UNL     1      23.264  25.671  37.173  1.00  0.00     0.100 C 
ATOM     34  C   UNL     1      25.230  25.792  38.566  1.00  0.00     0.100 C 
ATOM     35  C   UNL     1      23.500  24.171  36.847  1.00  0.00     0.099 C 
ATOM     36  C   UNL     1      25.713  24.586  37.714  1.00  0.00     0.099 C 
ATOM     37  N   UNL     1      24.663  23.576  37.532  1.00  0.00    -0.304 NA
ATOM     38  C   UNL     1      25.156  22.402  36.820  1.00  0.00     0.105 C 
ENDBRANCH  31  32
ENDBRANCH  30  31
ENDBRANCH   2  25
TORSDOF 7
ENDMDL
MODEL 3
REMARK VINA RESULT:    17.023      2.207      9.869
REMARK INTER + INTRA:          23.538
REMARK INTER:                  24.622
REMARK INTRA:                  -1.085
REMARK UNBOUND:                -0.451
REMARK SMILES Cc1ccc(NC(=O)c2ccc(CN3CCN(C)CC3)cc2)cc1Nc1nc(-c2cccnc2)cs1
REMARK SMILES IDX 6 1 7 2 8 3 5 5 2 6 3 7 24 8 4 9 23 10 1 11 25 12 26 14
REMARK SMILES IDX 27 15 36 16 28 17 35 18 29 19 30 20 34 21 31 22 33 23 32 24
REMARK SMILES IDX 9 25 10 26 22 27 11 28 21 29 12 30 13 31 14 32 15 33 20 34
REMARK SMILES IDX 16 35 19 36 17 37 18 38
REMARK H PARENT 6 4 25 13
ROOT
ATOM      1  N   UNL     1      27.466  25.269  44.593  1.00  0.00    -0.322 N 
ATOM      2  C   UNL     1      26.148  25.687  44.638  1.00  0.00     0.255 C 
ATOM      3  O   UNL     1      25.559  26.165  45.600  1.00  0.00    -0.269 OA
ATOM      4  H   UNL     1      27.837  25.038  43.682  1.00  0.00     0.170 HD
ENDROOT
BRANCH   1   5
ATOM      5  C   UNL     1      28.393  25.248  45.656  1.00  0.00     0.043 A 
ATOM      6  C   UNL     1      30.254  25.026  47.769  1.00  0.00    -0.027 A 
ATOM      7  C   UNL     1      29.616  23.890  47.257  1.00  0.00     0.008 A 
ATOM      8  C   UNL     1      29.932  26.289  47.239  1.00  0.00     0.045 A 
ATOM      9  C   UNL     1      28.697  24.001  46.210  1.00  0.00     0.026 A 
ATOM     10  C   UNL     1      29.006  26.386  46.183  1.00  0.00     0.052 A 
ATOM     11  C   UNL     1      31.239  24.870  48.895  1.00  0.00     0.046 C 
BRANCH   8  12
ATOM     12  N   UNL     1      30.521  27.466  47.760  1.00  0.00    -0.331 N 
ATOM     13  H   UNL     1      31.388  27.250  48.245  1.00  0.00     0.169 HD
BRANCH  12  14
ATOM     14  C   UNL     1      30.648  28.618  47.046  1.00  0.00     0.187 A 
ATOM     15  N   UNL     1      31.704  28.838  46.291  1.00  0.00    -0.220 NA
ATOM     16  S   UNL     1      29.504  29.913  47.046  1.00  0.00    -0.105 S 
ATOM     17  C   UNL     1      31.639  30.080  45.675  1.00  0.00     0.085 A 
ATOM     18  C   UNL     1      30.498  30.798  45.969  1.00  0.00     0.097 A 
BRANCH  17  19
ATOM     19  C   UNL     1      32.717  30.534  44.802  1.00  0.00     0.019 A 
ATOM     20  C   UNL     1      33.272  31.817  44.864  1.00  0.00     0.013 A 
ATOM     21  C   UNL     1      33.254  29.667  43.851  1.00  0.00     0.121 A 
ATOM     22  C   UNL     1      34.310  32.172  44.000  1.00  0.00     0.021 A 
ATOM     23  N   UNL     1      34.262  29.985  42.997  1.00  0.00    -0.264 NA
ATOM     24  C   UNL     1      34.766  31.231  43.093  1.00  0.00     0.111 A 
ENDBRANCH  17  19
ENDBRANCH  12  14
ENDBRANCH   8  12
ENDBRANCH   1   5
BRANCH   2  25
ATOM     25  C   UNL     1      25.419  25.576  43.343  1.00  0.00     0.040 A 
ATOM     26  C   UNL     1      26.045  24.920  42.279  1.00  0.00     0.014 A 
ATOM     27  C   UNL     1      24.141  26.121  43.171  1.00  0.00     0.014 A 
ATOM     28  C   UNL     1      25.382  24.780  41.058  1.00  0.00     0.006 A 
ATOM     29  C   UNL     1      23.482  25.984  41.946  1.00  0.00     0.006 A 
ATOM     30  C   UNL     1      24.090  25.301  40.882  1.00  0.00    -0.034 A 
BRANCH  30  31
ATOM     31  C   UNL     1      23.380  25.163  39.547  1.00  0.00     0.120 C 
BRANCH  31  32
ATOM     32  N   UNL     1      24.308  25.212  38.402  1.00  0.00    -0.297 NA
ATOM     33  C   UNL     1      24.390  26.582  37.863  1.00  0.00     0.100 C 
ATOM     34  C   UNL     1      23.891  24.285  37.322  1.00  0.00     0.100 C 
ATOM     35  C   UNL     1      23.110  27.102  37.153  1.00  0.00     0.099 C 
ATOM     36  C   UNL     1      23.068  24.904  36.158  1.00  0.00     0.099 C 
ATOM     37  N   UNL     1      22.249  26.040  36.598  1.00  0.00    -0.304 NA
ATOM     38  C   UNL     1      21.403  26.549  35.524  1.00  0.00     0.105 C 
ENDBRANCH  31  32
ENDBRANCH  30  31
ENDBRANCH   2  25
TORSDOF 7
ENDMDL
MODEL 4
REMARK VINA RESULT:    17.273      5.630      7.499
REMARK INTER + INTRA:          23.890
REMARK INTER:                  24.490
REMARK INTRA:                  -0.600
REMARK UNBOUND:                -0.451
REMARK SMILES Cc1ccc(NC(=O)c2ccc(CN3CCN(C)CC3)cc2)cc1Nc1nc(-c2cccnc2)cs1
REMARK SMILES IDX 6 1 7 2 8 3 5 5 2 6 3 7 24 8 4 9 23 10 1 11 25 12 26 14
REMARK SMILES IDX 27 15 36 16 28 17 35 18 29 19 30 20 34 21 31 22 33 23 32 24
REMARK SMILES IDX 9 25 10 26 22 27 11 28 21 29 12 30 13 31 14 32 15 33 20 34
REMARK SMILES IDX 16 35 19 36 17 37 18 38
REMARK H PARENT 6 4 25 13
ROOT
ATOM      1  N   UNL     1      26.697  25.569  45.480  1.00  0.00    -0.322 N 
ATOM      2  C   UNL     1      27.524  24.486  45.240  1.00  0.00     0.255 C 
ATOM      3  O   UNL     1      27.483  23.728  44.279  1.00  0.00    -0.269 OA
ATOM      4  H   UNL     1      26.959  26.178  46.243  1.00  0.00     0.170 HD
ENDROOT
BRANCH   1   5
ATOM      5  C   UNL     1      25.599  25.995  44.704  1.00  0.00     0.043 A 
ATOM      6  C   UNL     1      23.301  26.851  43.303  1.00  0.00    -0.027 A 
ATOM      7  C   UNL     1      23.209  26.425  44.633  1.00  0.00     0.008 A 
ATOM      8  C   UNL     1      24.552  26.818  42.659  1.00  0.00     0.045 A 
ATOM      9  C   UNL     1      24.346  26.004  45.326  1.00  0.00     0.026 A 
ATOM     10  C   UNL     1      25.690  26.393  43.370  1.00  0.00     0.052 A 
ATOM     11  C   UNL     1      22.057  27.301  42.587  1.00  0.00     0.046 C 
BRANCH   8  12
ATOM     12  N   UNL     1      24.679  27.198  41.301  1.00  0.00    -0.331 N 
ATOM     13  H   UNL     1      25.391  27.916  41.194  1.00  0.00     0.169 HD
BRANCH  12  14
ATOM     14  C   UNL     1      24.747  26.302  40.279  1.00  0.00     0.187 A 
ATOM     15  N   UNL     1      23.885  26.337  39.284  1.00  0.00    -0.220 NA
ATOM     16  S   UNL     1      25.909  25.030  40.154  1.00  0.00    -0.105 S 
ATOM     17  C   UNL     1      24.122  25.322  38.368  1.00  0.00     0.085 A 
ATOM     18  C   UNL     1      25.198  24.518  38.682  1.00  0.00     0.097 A 
BRANCH  17  19
ATOM     19  C   UNL     1      23.271  25.167  37.192  1.00  0.00     0.019 A 
ATOM     20  C   UNL     1      23.209  23.994  36.434  1.00  0.00     0.013 A 
ATOM     21  C   UNL     1      22.455  26.221  36.781  1.00  0.00     0.121 A 
ATOM     22  C   UNL     1      22.360  23.921  35.327  1.00  0.00     0.021 A 
ATOM     23  N   UNL     1      21.620  26.179  35.709  1.00  0.00    -0.264 NA
ATOM     24  C   UNL     1      21.593  25.028  35.008  1.00  0.00     0.111 A 
ENDBRANCH  17  19
ENDBRANCH  12  14
ENDBRANCH   8  12
ENDBRANCH   1   5
BRANCH   2  25
ATOM     25  C   UNL     1      28.595  24.288  46.256  1.00  0.00     0.040 A 
ATOM     26  C   UNL     1      29.297  23.079  46.261  1.00  0.00     0.014 A 
ATOM     27  C   UNL     1      28.899  25.274  47.203  1.00  0.00     0.014 A 
ATOM     28  C   UNL     1      30.320  22.869  47.187  1.00  0.00     0.006 A 
ATOM     29  C   UNL     1      29.922  25.059  48.132  1.00  0.00     0.006 A 
ATOM     30  C   UNL     1      30.650  23.860  48.125  1.00  0.00    -0.034 A 
BRANCH  30  31
ATOM     31  C   UNL     1      31.751  23.620  49.142  1.00  0.00     0.120 C 
BRANCH  31  32
ATOM     32  N   UNL     1      33.016  24.284  48.777  1.00  0.00    -0.297 NA
ATOM     33  C   UNL     1      34.147  23.671  49.498  1.00  0.00     0.100 C 
ATOM     34  C   UNL     1      32.977  25.737  49.073  1.00  0.00     0.100 C 
ATOM     35  C   UNL     1      34.183  23.922  51.030  1.00  0.00     0.099 C 
ATOM     36  C   UNL     1      33.605  26.185  50.422  1.00  0.00     0.099 C 
ATOM     37  N   UNL     1      33.491  25.153  51.460  1.00  0.00    -0.304 NA
ATOM     38  C   UNL     1      33.990  25.620  52.748  1.00  0.00     0.105 C 
ENDBRANCH  31  32
ENDBRANCH  30  31
ENDBRANCH   2  25
TORSDOF 7
ENDMDL
MODEL 5
REMARK VINA RESULT:    18.364      6.131      9.286
REMARK INTER + INTRA:          25.427
REMARK INTER:                  24.061
REMARK INTRA:                   1.366
REMARK UNBOUND:                -0.451
REMARK SMILES Cc1ccc(NC(=O)c2ccc(CN3CCN(C)CC3)cc2)cc1Nc1nc(-c2cccnc2)cs1
REMARK SMILES IDX 6 1 7 2 8 3 5 5 2 6 3 7 24 8 4 9 23 10 1 11 25 12 26 14
REMARK SMILES IDX 27 15 36 16 28 17 35 18 29 19 30 20 34 21 31 22 33 23 32 24
REMARK SMILES IDX 9 25 10 26 22 27 11 28 21 29 12 30 13 31 14 32 15 33 20 34
REMARK SMILES IDX 16 35 19 36 17 37 18 38
REMARK H PARENT 6 4 25 13
ROOT
ATOM      1  N   UNL     1      25.921  24.744  41.528  1.00  0.00    -0.322 N 
ATOM      2  C   UNL     1      25.380  25.269  42.688  1.00  0.00     0.255 C 
ATOM      3  O   UNL     1      24.274  25.779  42.819  1.00  0.00    -0.269 OA
ATOM      4  H   UNL     1      26.785  24.228  41.624  1.00  0.00     0.170 HD
ENDROOT
BRANCH   1   5
ATOM      5  C   UNL     1      25.342  24.736  40.242  1.00  0.00     0.043 A 
ATOM      6  C   UNL     1      24.108  24.558  37.707  1.00  0.00    -0.027 A 
ATOM      7  C   UNL     1      24.139  23.452  38.566  1.00  0.00     0.008 A 
ATOM      8  C   UNL     1      24.730  25.754  38.110  1.00  0.00     0.045 A 
ATOM      9  C   UNL     1      24.748  23.542  39.820  1.00  0.00     0.026 A 
ATOM     10  C   UNL     1      25.338  25.831  39.377  1.00  0.00     0.052 A 
ATOM     11  C   UNL     1      23.443  24.427  36.365  1.00  0.00     0.046 C 
BRANCH   8  12
ATOM     12  N   UNL     1      24.760  26.879  37.252  1.00  0.00    -0.331 N 
ATOM     13  H   UNL     1      25.404  26.726  36.480  1.00  0.00     0.169 HD
BRANCH  12  14
ATOM     14  C   UNL     1      23.640  27.519  36.819  1.00  0.00     0.187 A 
ATOM     15  N   UNL     1      23.612  28.829  36.685  1.00  0.00    -0.220 NA
ATOM     16  S   UNL     1      22.148  26.743  36.425  1.00  0.00    -0.105 S 
ATOM     17  C   UNL     1      22.369  29.271  36.256  1.00  0.00     0.085 A 
ATOM     18  C   UNL     1      21.449  28.262  36.054  1.00  0.00     0.097 A 
BRANCH  17  19
ATOM     19  C   UNL     1      22.113  30.694  36.056  1.00  0.00     0.019 A 
ATOM     20  C   UNL     1      20.863  31.290  36.256  1.00  0.00     0.013 A 
ATOM     21  C   UNL     1      23.149  31.537  35.655  1.00  0.00     0.121 A 
ATOM     22  C   UNL     1      20.703  32.662  36.053  1.00  0.00     0.021 A 
ATOM     23  N   UNL     1      23.023  32.874  35.449  1.00  0.00    -0.264 NA
ATOM     24  C   UNL     1      21.801  33.404  35.654  1.00  0.00     0.111 A 
ENDBRANCH  17  19
ENDBRANCH  12  14
ENDBRANCH   8  12
ENDBRANCH   1   5
BRANCH   2  25
ATOM     25  C   UNL     1      26.247  25.133  43.891  1.00  0.00     0.040 A 
ATOM     26  C   UNL     1      27.191  24.102  43.922  1.00  0.00     0.014 A 
ATOM     27  C   UNL     1      26.126  25.999  44.986  1.00  0.00     0.014 A 
ATOM     28  C   UNL     1      28.033  23.958  45.026  1.00  0.00     0.006 A 
ATOM     29  C   UNL     1      26.968  25.850  46.092  1.00  0.00     0.006 A 
ATOM     30  C   UNL     1      27.938  24.836  46.118  1.00  0.00    -0.034 A 
BRANCH  30  31
ATOM     31  C   UNL     1      28.843  24.665  47.324  1.00  0.00     0.120 C 
BRANCH  31  32
ATOM     32  N   UNL     1      29.611  23.408  47.285  1.00  0.00    -0.297 NA
ATOM     33  C   UNL     1      29.896  22.935  48.652  1.00  0.00     0.100 C 
ATOM     34  C   UNL     1      30.887  23.570  46.547  1.00  0.00     0.100 C 
ATOM     35  C   UNL     1      30.899  23.799  49.466  1.00  0.00     0.099 C 
ATOM     36  C   UNL     1      32.154  23.840  47.405  1.00  0.00     0.099 C 
ATOM     37  N   UNL     1      31.844  24.573  48.639  1.00  0.00    -0.304 NA
ATOM     38  C   UNL     1      33.050  24.912  49.387  1.00  0.00     0.105 C 
ENDBRANCH  31  32
ENDBRANCH  30  31
ENDBRANCH   2  25
TORSDOF 7
ENDMDL
MODEL 6
REMARK VINA RESULT:    18.853      5.347      7.395
REMARK INTER + INTRA:          26.116
REMARK INTER:                  25.222
REMARK INTRA:                   0.894
REMARK UNBOUND:                -0.451
REMARK SMILES Cc1ccc(NC(=O)c2ccc(CN3CCN(C)CC3)cc2)cc1Nc1nc(-c2cccnc2)cs1
REMARK SMILES IDX 6 1 7 2 8 3 5 5 2 6 3 7 24 8 4 9 23 10 1 11 25 12 26 14
REMARK SMILES IDX 27 15 36 16 28 17 35 18 29 19 30 20 34 21 31 22 33 23 32 24
REMARK SMILES IDX 9 25 10 26 22 27 11 28 21 29 12 30 13 31 14 32 15 33 20 34
REMARK SMILES IDX 16 35 19 36 17 37 18 38
REMARK H PARENT 6 4 25 13
ROOT
ATOM      1  N   UNL     1      26.663  25.159  44.631  1.00  0.00    -0.322 N 
ATOM      2  C   UNL     1      26.927  25.625  45.907  1.00  0.00     0.255 C 
ATOM      3  O   UNL     1      26.211  26.347  46.590  1.00  0.00    -0.269 OA
ATOM      4  H   UNL     1      27.289  24.454  44.268  1.00  0.00     0.170 HD
ENDROOT
BRANCH   1   5
ATOM      5  C   UNL     1      25.547  25.464  43.824  1.00  0.00     0.043 A 
ATOM      6  C   UNL     1      23.283  26.217  42.313  1.00  0.00    -0.027 A 
ATOM      7  C   UNL     1      23.561  26.835  43.539  1.00  0.00     0.008 A 
ATOM      8  C   UNL     1      24.130  25.191  41.856  1.00  0.00     0.045 A 
ATOM      9  C   UNL     1      24.683  26.462  44.284  1.00  0.00     0.026 A 
ATOM     10  C   UNL     1      25.257  24.827  42.617  1.00  0.00     0.052 A 
ATOM     11  C   UNL     1      22.068  26.644  41.535  1.00  0.00     0.046 C 
BRANCH   8  12
ATOM     12  N   UNL     1      23.857  24.511  40.645  1.00  0.00    -0.331 N 
ATOM     13  H   UNL     1      22.936  24.081  40.673  1.00  0.00     0.169 HD
BRANCH  12  14
ATOM     14  C   UNL     1      24.095  25.048  39.417  1.00  0.00     0.187 A 
ATOM     15  N   UNL     1      23.240  25.881  38.860  1.00  0.00    -0.220 NA
ATOM     16  S   UNL     1      25.480  24.710  38.441  1.00  0.00    -0.105 S 
ATOM     17  C   UNL     1      23.667  26.285  37.604  1.00  0.00     0.085 A 
ATOM     18  C   UNL     1      24.879  25.749  37.219  1.00  0.00     0.097 A 
BRANCH  17  19
ATOM     19  C   UNL     1      22.860  27.200  36.802  1.00  0.00     0.019 A 
ATOM     20  C   UNL     1      21.699  26.814  36.125  1.00  0.00     0.013 A 
ATOM     21  C   UNL     1      23.231  28.540  36.691  1.00  0.00     0.121 A 
ATOM     22  C   UNL     1      20.975  27.753  35.386  1.00  0.00     0.021 A 
ATOM     23  N   UNL     1      22.548  29.475  35.980  1.00  0.00    -0.264 NA
ATOM     24  C   UNL     1      21.435  29.058  35.345  1.00  0.00     0.111 A 
ENDBRANCH  17  19
ENDBRANCH  12  14
ENDBRANCH   8  12
ENDBRANCH   1   5
BRANCH   2  25
ATOM     25  C   UNL     1      28.202  25.127  46.496  1.00  0.00     0.040 A 
ATOM     26  C   UNL     1      28.631  23.837  46.169  1.00  0.00     0.014 A 
ATOM     27  C   UNL     1      28.962  25.914  47.371  1.00  0.00     0.014 A 
ATOM     28  C   UNL     1      29.831  23.348  46.687  1.00  0.00     0.006 A 
ATOM     29  C   UNL     1      30.162  25.419  47.891  1.00  0.00     0.006 A 
ATOM     30  C   UNL     1      30.614  24.137  47.545  1.00  0.00    -0.034 A 
BRANCH  30  31
ATOM     31  C   UNL     1      31.910  23.594  48.121  1.00  0.00     0.120 C 
BRANCH  31  32
ATOM     32  N   UNL     1      32.208  24.137  49.459  1.00  0.00    -0.297 NA
ATOM     33  C   UNL     1      32.602  25.555  49.364  1.00  0.00     0.100 C 
ATOM     34  C   UNL     1      33.287  23.372  50.130  1.00  0.00     0.100 C 
ATOM     35  C   UNL     1      33.974  25.827  48.688  1.00  0.00     0.099 C 
ATOM     36  C   UNL     1      34.722  23.959  50.021  1.00  0.00     0.099 C 
ATOM     37  N   UNL     1      34.925  24.702  48.771  1.00  0.00    -0.304 NA
ATOM     38  C   UNL     1      36.303  25.161  48.629  1.00  0.00     0.105 C 
ENDBRANCH  31  32
ENDBRANCH  30  31
ENDBRANCH   2  25
TORSDOF 7
ENDMDL
MODEL 7
REMARK VINA RESULT:    19.210      5.978     11.919
REMARK INTER + INTRA:          26.620
REMARK INTER:                  26.123
REMARK INTRA:                   0.497
REMARK UNBOUND:                -0.451
REMARK SMILES Cc1ccc(NC(=O)c2ccc(CN3CCN(C)CC3)cc2)cc1Nc1nc(-c2cccnc2)cs1
REMARK SMILES IDX 6 1 7 2 8 3 5 5 2 6 3 7 24 8 4 9 23 10 1 11 25 12 26 14
REMARK SMILES IDX 27 15 36 16 28 17 35 18 29 19 30 20 34 21 31 22 33 23 32 24
REMARK SMILES IDX 9 25 10 26 22 27 11 28 21 29 12 30 13 31 14 32 15 33 20 34
REMARK SMILES IDX 16 35 19 36 17 37 18 38
REMARK H PARENT 6 4 25 13
ROOT
ATOM      1  N   UNL     1      25.128  24.811  40.938  1.00  0.00    -0.322 N 
ATOM      2  C   UNL     1      25.146  25.352  39.664  1.00  0.00     0.255 C 
ATOM      3  O   UNL     1      25.317  26.527  39.366  1.00  0.00    -0.269 OA
ATOM      4  H   UNL     1      25.122  23.802  41.001  1.00  0.00     0.170 HD
ENDROOT
BRANCH   1   5
ATOM      5  C   UNL     1      25.244  25.502  42.162  1.00  0.00     0.043 A 
ATOM      6  C   UNL     1      25.383  27.021  44.539  1.00  0.00    -0.027 A 
ATOM      7  C   UNL     1      24.914  27.595  43.351  1.00  0.00     0.008 A 
ATOM      8  C   UNL     1      25.817  25.682  44.527  1.00  0.00     0.045 A 
ATOM      9  C   UNL     1      24.844  26.842  42.176  1.00  0.00     0.026 A 
ATOM     10  C   UNL     1      25.739  24.935  43.337  1.00  0.00     0.052 A 
ATOM     11  C   UNL     1      25.443  27.860  45.786  1.00  0.00     0.046 C 
BRANCH   8  12
ATOM     12  N   UNL     1      26.341  25.080  45.697  1.00  0.00    -0.331 N 
ATOM     13  H   UNL     1      25.612  24.581  46.202  1.00  0.00     0.169 HD
BRANCH  12  14
ATOM     14  C   UNL     1      27.504  24.374  45.716  1.00  0.00     0.187 A 
ATOM     15  N   UNL     1      28.452  24.646  46.588  1.00  0.00    -0.220 NA
ATOM     16  S   UNL     1      27.900  23.090  44.630  1.00  0.00    -0.105 S 
ATOM     17  C   UNL     1      29.556  23.824  46.415  1.00  0.00     0.085 A 
ATOM     18  C   UNL     1      29.421  22.906  45.394  1.00  0.00     0.097 A 
BRANCH  17  19
ATOM     19  C   UNL     1      30.731  23.966  47.269  1.00  0.00     0.019 A 
ATOM     20  C   UNL     1      30.670  24.385  48.602  1.00  0.00     0.013 A 
ATOM     21  C   UNL     1      31.997  23.666  46.766  1.00  0.00     0.121 A 
ATOM     22  C   UNL     1      31.841  24.485  49.357  1.00  0.00     0.021 A 
ATOM     23  N   UNL     1      33.152  23.755  47.475  1.00  0.00    -0.264 NA
ATOM     24  C   UNL     1      33.045  24.163  48.756  1.00  0.00     0.111 A 
ENDBRANCH  17  19
ENDBRANCH  12  14
ENDBRANCH   8  12
ENDBRANCH   1   5
BRANCH   2  25
ATOM     25  C   UNL     1      24.987  24.356  38.568  1.00  0.00     0.040 A 
ATOM     26  C   UNL     1      25.740  23.179  38.619  1.00  0.00     0.014 A 
ATOM     27  C   UNL     1      24.119  24.581  37.492  1.00  0.00     0.014 A 
ATOM     28  C   UNL     1      25.600  22.217  37.617  1.00  0.00     0.006 A 
ATOM     29  C   UNL     1      23.984  23.617  36.488  1.00  0.00     0.006 A 
ATOM     30  C   UNL     1      24.714  22.420  36.548  1.00  0.00    -0.034 A 
BRANCH  30  31
ATOM     31  C   UNL     1      24.579  21.379  35.451  1.00  0.00     0.120 C 
BRANCH  31  32
ATOM     32  N   UNL     1      23.177  20.997  35.200  1.00  0.00    -0.297 NA
ATOM     33  C   UNL     1      22.419  20.958  36.464  1.00  0.00     0.100 C 
ATOM     34  C   UNL     1      23.082  19.677  34.531  1.00  0.00     0.100 C 
ATOM     35  C   UNL     1      22.803  19.815  37.443  1.00  0.00     0.099 C 
ATOM     36  C   UNL     1      22.823  18.453  35.451  1.00  0.00     0.099 C 
ATOM     37  N   UNL     1      23.396  18.631  36.791  1.00  0.00    -0.304 NA
ATOM     38  C   UNL     1      23.238  17.437  37.613  1.00  0.00     0.105 C 
ENDBRANCH  31  32
ENDBRANCH  30  31
ENDBRANCH   2  25
TORSDOF 7
ENDMDL
