MODEL 1
REMARK VINA RESULT:     0.232      0.000      0.000
REMARK INTER + INTRA:           0.800
REMARK INTER:                   0.327
REMARK INTRA:                   0.472
REMARK UNBOUND:                 0.472
REMARK SMILES Cc1ccc(NC(=O)c2ccc(CN3CCN(C)CC3)cc2)cc1Nc1nc(-c2cccnc2)cs1
REMARK SMILES IDX 6 1 7 2 8 3 5 5 2 6 3 7 24 8 4 9 23 10 1 11 25 12 26 14
REMARK SMILES IDX 27 15 36 16 28 17 35 18 29 19 30 20 34 21 31 22 33 23 32 24
REMARK SMILES IDX 9 25 10 26 22 27 11 28 21 29 12 30 13 31 14 32 15 33 20 34
REMARK SMILES IDX 16 35 19 36 17 37 18 38
REMARK H PARENT 6 4 25 13
ROOT
ATOM      1  N   UNL     1      31.101  27.640  45.834  1.00  0.00    -0.322 N 
ATOM      2  C   UNL     1      31.040  28.911  46.379  1.00  0.00     0.255 C 
ATOM      3  O   UNL     1      30.485  29.239  47.420  1.00  0.00    -0.269 OA
ATOM      4  H   UNL     1      31.723  27.514  45.048  1.00  0.00     0.170 HD
ENDROOT
BRANCH   1   5
ATOM      5  C   UNL     1      30.491  26.468  46.327  1.00  0.00     0.043 A 
ATOM      6  C   UNL     1      29.382  24.129  47.457  1.00  0.00    -0.027 A 
ATOM      7  C   UNL     1      30.566  24.676  47.967  1.00  0.00     0.008 A 
ATOM      8  C   UNL     1      28.766  24.742  46.351  1.00  0.00     0.045 A 
ATOM      9  C   UNL     1      31.112  25.834  47.408  1.00  0.00     0.026 A 
ATOM     10  C   UNL     1      29.326  25.909  45.800  1.00  0.00     0.052 A 
ATOM     11  C   UNL     1      28.821  22.882  48.084  1.00  0.00     0.046 C 
BRANCH   8  12
ATOM     12  N   UNL     1      27.593  24.193  45.778  1.00  0.00    -0.331 N 
ATOM     13  H   UNL     1      27.082  23.643  46.464  1.00  0.00     0.169 HD
BRANCH  12  14
ATOM     14  C   UNL     1      26.734  24.910  45.004  1.00  0.00     0.187 A 
ATOM     15  N   UNL     1      26.621  24.675  43.714  1.00  0.00    -0.220 NA
ATOM     16  S   UNL     1      25.727  26.194  45.573  1.00  0.00    -0.105 S 
ATOM     17  C   UNL     1      25.710  25.534  43.117  1.00  0.00     0.085 A 
ATOM     18  C   UNL     1      25.118  26.425  43.989  1.00  0.00     0.097 A 
BRANCH  17  19
ATOM     19  C   UNL     1      25.442  25.457  41.684  1.00  0.00     0.019 A 
ATOM     20  C   UNL     1      24.939  24.314  41.053  1.00  0.00     0.013 A 
ATOM     21  C   UNL     1      25.679  26.565  40.871  1.00  0.00     0.121 A 
ATOM     22  C   UNL     1      24.700  24.324  39.677  1.00  0.00     0.021 A 
ATOM     23  N   UNL     1      25.457  26.604  39.531  1.00  0.00    -0.264 NA
ATOM     24  C   UNL     1      24.972  25.480  38.967  1.00  0.00     0.111 A 
ENDBRANCH  17  19
ENDBRANCH  12  14
ENDBRANCH   8  12
ENDBRANCH   1   5
BRANCH   2  25
ATOM     25  C   UNL     1      31.785  29.948  45.612  1.00  0.00     0.040 A 
ATOM     26  C   UNL     1      33.169  30.045  45.789  1.00  0.00     0.014 A 
ATOM     27  C   UNL     1      31.132  30.827  44.740  1.00  0.00     0.014 A 
ATOM     28  C   UNL     1      33.900  30.993  45.072  1.00  0.00     0.006 A 
ATOM     29  C   UNL     1      31.867  31.779  44.026  1.00  0.00     0.006 A 
ATOM     30  C   UNL     1      33.259  31.862  44.176  1.00  0.00    -0.034 A 
BRANCH  30  31
ATOM     31  C   UNL     1      34.055  32.904  43.411  1.00  0.00     0.120 C 
BRANCH  31  32
ATOM     32  N   UNL     1      33.778  34.279  43.866  1.00  0.00    -0.297 NA
ATOM     33  C   UNL     1      34.981  34.873  44.477  1.00  0.00     0.100 C 
ATOM     34  C   UNL     1      32.663  34.316  44.844  1.00  0.00     0.100 C 
ATOM     35  C   UNL     1      35.418  34.258  45.835  1.00  0.00     0.099 C 
ATOM     36  C   UNL     1      33.061  34.335  46.345  1.00  0.00     0.099 C 
ATOM     37  N   UNL     1      34.323  33.628  46.596  1.00  0.00    -0.304 NA
ATOM     38  C   UNL     1      34.635  33.562  48.020  1.00  0.00     0.105 C 
ENDBRANCH  31  32
ENDBRANCH  30  31
ENDBRANCH   2  25
TORSDOF 7
ENDMDL
MODEL 2
REMARK VINA RESULT:     1.007      2.801     10.115
REMARK INTER + INTRA:           1.892
REMARK INTER:                   2.708
REMARK INTRA:                  -0.816
REMARK UNBOUND:                 0.472
REMARK SMILES Cc1ccc(NC(=O)c2ccc(CN3CCN(C)CC3)cc2)cc1Nc1nc(-c2cccnc2)cs1
REMARK SMILES IDX 6 1 7 2 8 3 5 5 2 6 3 7 24 8 4 9 23 10 1 11 25 12 26 14
REMARK SMILES IDX 27 15 36 16 28 17 35 18 29 19 30 20 34 21 31 22 33 23 32 24
REMARK SMILES IDX 9 25 10 26 22 27 11 28 21 29 12 30 13 31 14 32 15 33 20 34
REMARK SMILES IDX 16 35 19 36 17 37 18 38
REMARK H PARENT 6 4 25 13
ROOT
ATOM      1  N   UNL     1      27.518  24.790  44.398  1.00  0.00    -0.322 N 
ATOM      2  C   UNL     1      26.297  25.438  44.418  1.00  0.00     0.255 C 
ATOM      3  O   UNL     1      25.784  26.013  45.370  1.00  0.00    -0.269 OA
ATOM      4  H   UNL     1      27.860  24.496  43.494  1.00  0.00     0.170 HD
ENDROOT
BRANCH   1   5
ATOM      5  C   UNL     1      28.405  24.602  45.480  1.00  0.00     0.043 A 
ATOM      6  C   UNL     1      30.156  24.047  47.625  1.00  0.00    -0.027 A 
ATOM      7  C   UNL     1      29.365  23.034  47.069  1.00  0.00     0.008 A 
ATOM      8  C   UNL     1      30.044  25.357  47.122  1.00  0.00     0.045 A 
ATOM      9  C   UNL     1      28.501  23.310  46.006  1.00  0.00     0.026 A 
ATOM     10  C   UNL     1      29.171  25.619  46.050  1.00  0.00     0.052 A 
ATOM     11  C   UNL     1      31.077  23.716  48.767  1.00  0.00     0.046 C 
BRANCH   8  12
ATOM     12  N   UNL     1      30.793  26.417  47.688  1.00  0.00    -0.331 N 
ATOM     13  H   UNL     1      31.715  26.095  47.971  1.00  0.00     0.169 HD
BRANCH  12  14
ATOM     14  C   UNL     1      30.871  27.656  47.132  1.00  0.00     0.187 A 
ATOM     15  N   UNL     1      31.567  27.869  46.035  1.00  0.00    -0.220 NA
ATOM     16  S   UNL     1      30.120  29.076  47.771  1.00  0.00    -0.105 S 
ATOM     17  C   UNL     1      31.530  29.203  45.658  1.00  0.00     0.085 A 
ATOM     18  C   UNL     1      30.776  30.005  46.490  1.00  0.00     0.097 A 
BRANCH  17  19
ATOM     19  C   UNL     1      32.250  29.663  44.474  1.00  0.00     0.019 A 
ATOM     20  C   UNL     1      32.061  30.922  43.896  1.00  0.00     0.013 A 
ATOM     21  C   UNL     1      33.191  28.832  43.866  1.00  0.00     0.121 A 
ATOM     22  C   UNL     1      32.797  31.291  42.768  1.00  0.00     0.021 A 
ATOM     23  N   UNL     1      33.921  29.162  42.769  1.00  0.00    -0.264 NA
ATOM     24  C   UNL     1      33.706  30.386  42.247  1.00  0.00     0.111 A 
ENDBRANCH  17  19
ENDBRANCH  12  14
ENDBRANCH   8  12
ENDBRANCH   1   5
BRANCH   2  25
ATOM     25  C   UNL     1      25.587  25.460  43.109  1.00  0.00     0.040 A 
ATOM     26  C   UNL     1      26.303  25.130  41.954  1.00  0.00     0.014 A 
ATOM     27  C   UNL     1      24.235  25.815  43.012  1.00  0.00     0.014 A 
ATOM     28  C   UNL     1      25.663  25.121  40.714  1.00  0.00     0.006 A 
ATOM     29  C   UNL     1      23.598  25.809  41.767  1.00  0.00     0.006 A 
ATOM     30  C   UNL     1      24.303  25.450  40.608  1.00  0.00    -0.034 A 
BRANCH  30  31
ATOM     31  C   UNL     1      23.615  25.457  39.255  1.00  0.00     0.120 C 
BRANCH  31  32
ATOM     32  N   UNL     1      24.531  25.808  38.154  1.00  0.00    -0.297 NA
ATOM     33  C   UNL     1      23.856  26.688  37.182  1.00  0.00     0.100 C 
ATOM     34  C   UNL     1      25.031  24.599  37.455  1.00  0.00     0.100 C 
ATOM     35  C   UNL     1      22.725  26.025  36.348  1.00  0.00     0.099 C 
ATOM     36  C   UNL     1      24.281  24.190  36.157  1.00  0.00     0.099 C 
ATOM     37  N   UNL     1      22.862  24.564  36.192  1.00  0.00    -0.304 NA
ATOM     38  C   UNL     1      22.144  24.086  35.016  1.00  0.00     0.105 C 
ENDBRANCH  31  32
ENDBRANCH  30  31
ENDBRANCH   2  25
TORSDOF 7
ENDMDL
MODEL 3
REMARK VINA RESULT:     1.701      0.746      1.190
REMARK INTER + INTRA:           2.869
REMARK INTER:                   1.471
REMARK INTRA:                   1.398
REMARK UNBOUND:                 0.472
REMARK SMILES Cc1ccc(NC(=O)c2ccc(CN3CCN(C)CC3)cc2)cc1Nc1nc(-c2cccnc2)cs1
REMARK SMILES IDX 6 1 7 2 8 3 5 5 2 6 3 7 24 8 4 9 23 10 1 11 25 12 26 14
REMARK SMILES IDX 27 15 36 16 28 17 35 18 29 19 30 20 34 21 31 22 33 23 32 24
REMARK SMILES IDX 9 25 10 26 22 27 11 28 21 29 12 30 13 31 14 32 15 33 20 34
REMARK SMILES IDX 16 35 19 36 17 37 18 38
REMARK H PARENT 6 4 25 13
ROOT
ATOM      1  N   UNL     1      30.891  27.421  45.826  1.00  0.00    -0.322 N 
ATOM      2  C   UNL     1      30.809  28.619  46.512  1.00  0.00     0.255 C 
ATOM      3  O   UNL     1      30.290  28.808  47.605  1.00  0.00    -0.269 OA
ATOM      4  H   UNL     1      31.481  27.408  45.006  1.00  0.00     0.170 HD
ENDROOT
BRANCH   1   5
ATOM      5  C   UNL     1      30.345  26.177  46.209  1.00  0.00     0.043 A 
ATOM      6  C   UNL     1      29.379  23.678  47.103  1.00  0.00    -0.027 A 
ATOM      7  C   UNL     1      30.606  24.176  47.562  1.00  0.00     0.008 A 
ATOM      8  C   UNL     1      28.646  24.426  46.164  1.00  0.00     0.045 A 
ATOM      9  C   UNL     1      31.081  25.413  47.120  1.00  0.00     0.026 A 
ATOM     10  C   UNL     1      29.136  25.671  45.729  1.00  0.00     0.052 A 
ATOM     11  C   UNL     1      28.896  22.344  47.601  1.00  0.00     0.046 C 
BRANCH   8  12
ATOM     12  N   UNL     1      27.424  23.936  45.642  1.00  0.00    -0.331 N 
ATOM     13  H   UNL     1      26.895  23.449  46.362  1.00  0.00     0.169 HD
BRANCH  12  14
ATOM     14  C   UNL     1      26.594  24.679  44.860  1.00  0.00     0.187 A 
ATOM     15  N   UNL     1      26.508  24.467  43.564  1.00  0.00    -0.220 NA
ATOM     16  S   UNL     1      25.595  25.970  45.427  1.00  0.00    -0.105 S 
ATOM     17  C   UNL     1      25.624  25.350  42.960  1.00  0.00     0.085 A 
ATOM     18  C   UNL     1      25.027  26.236  43.833  1.00  0.00     0.097 A 
BRANCH  17  19
ATOM     19  C   UNL     1      25.389  25.300  41.521  1.00  0.00     0.019 A 
ATOM     20  C   UNL     1      24.930  24.159  40.853  1.00  0.00     0.013 A 
ATOM     21  C   UNL     1      25.612  26.433  40.739  1.00  0.00     0.121 A 
ATOM     22  C   UNL     1      24.719  24.195  39.473  1.00  0.00     0.021 A 
ATOM     23  N   UNL     1      25.417  26.497  39.396  1.00  0.00    -0.264 NA
ATOM     24  C   UNL     1      24.974  25.375  38.796  1.00  0.00     0.111 A 
ENDBRANCH  17  19
ENDBRANCH  12  14
ENDBRANCH   8  12
ENDBRANCH   1   5
BRANCH   2  25
ATOM     25  C   UNL     1      31.482  29.764  45.839  1.00  0.00     0.040 A 
ATOM     26  C   UNL     1      30.870  31.020  45.882  1.00  0.00     0.014 A 
ATOM     27  C   UNL     1      32.696  29.605  45.158  1.00  0.00     0.014 A 
ATOM     28  C   UNL     1      31.484  32.119  45.278  1.00  0.00     0.006 A 
ATOM     29  C   UNL     1      33.306  30.706  44.550  1.00  0.00     0.006 A 
ATOM     30  C   UNL     1      32.713  31.976  44.615  1.00  0.00    -0.034 A 
BRANCH  30  31
ATOM     31  C   UNL     1      33.368  33.169  43.943  1.00  0.00     0.120 C 
BRANCH  31  32
ATOM     32  N   UNL     1      34.782  33.333  44.331  1.00  0.00    -0.297 NA
ATOM     33  C   UNL     1      35.153  32.344  45.359  1.00  0.00     0.100 C 
ATOM     34  C   UNL     1      35.052  34.699  44.844  1.00  0.00     0.100 C 
ATOM     35  C   UNL     1      34.500  32.548  46.754  1.00  0.00     0.099 C 
ATOM     36  C   UNL     1      35.033  34.873  46.388  1.00  0.00     0.099 C 
ATOM     37  N   UNL     1      34.107  33.941  47.042  1.00  0.00    -0.304 NA
ATOM     38  C   UNL     1      34.018  34.181  48.479  1.00  0.00     0.105 C 
ENDBRANCH  31  32
ENDBRANCH  30  31
ENDBRANCH   2  25
TORSDOF 7
ENDMDL
MODEL 4
REMARK VINA RESULT:     2.230      1.240      2.044
REMARK INTER + INTRA:           3.615
REMARK INTER:                   0.330
REMARK INTRA:                   3.285
REMARK UNBOUND:                 0.472
REMARK SMILES Cc1ccc(NC(=O)c2ccc(CN3CCN(C)CC3)cc2)cc1Nc1nc(-c2cccnc2)cs1
REMARK SMILES IDX 6 1 7 2 8 3 5 5 2 6 3 7 24 8 4 9 23 10 1 11 25 12 26 14
REMARK SMILES IDX 27 15 36 16 28 17 35 18 29 19 30 20 34 21 31 22 33 23 32 24
REMARK SMILES IDX 9 25 10 26 22 27 11 28 21 29 12 30 13 31 14 32 15 33 20 34
REMARK SMILES IDX 16 35 19 36 17 37 18 38
REMARK H PARENT 6 4 25 13
ROOT
ATOM      1  N   UNL     1      31.136  27.637  46.315  1.00  0.00    -0.322 N 
ATOM      2  C   UNL     1      32.172  28.046  45.494  1.00  0.00     0.255 C 
ATOM      3  O   UNL     1      32.636  27.440  44.536  1.00  0.00    -0.269 OA
ATOM      4  H   UNL     1      30.778  28.321  46.967  1.00  0.00     0.170 HD
ENDROOT
BRANCH   1   5
ATOM      5  C   UNL     1      30.434  26.414  46.261  1.00  0.00     0.043 A 
ATOM      6  C   UNL     1      29.187  23.881  46.185  1.00  0.00    -0.027 A 
ATOM      7  C   UNL     1      30.583  23.990  46.186  1.00  0.00     0.008 A 
ATOM      8  C   UNL     1      28.410  25.054  46.190  1.00  0.00     0.045 A 
ATOM      9  C   UNL     1      31.199  25.244  46.226  1.00  0.00     0.026 A 
ATOM     10  C   UNL     1      29.043  26.310  46.232  1.00  0.00     0.052 A 
ATOM     11  C   UNL     1      28.557  22.516  46.144  1.00  0.00     0.046 C 
BRANCH   8  12
ATOM     12  N   UNL     1      26.996  24.987  46.143  1.00  0.00    -0.331 N 
ATOM     13  H   UNL     1      26.596  25.179  47.058  1.00  0.00     0.169 HD
BRANCH  12  14
ATOM     14  C   UNL     1      26.253  25.573  45.165  1.00  0.00     0.187 A 
ATOM     15  N   UNL     1      26.243  25.096  43.938  1.00  0.00    -0.220 NA
ATOM     16  S   UNL     1      25.275  26.982  45.376  1.00  0.00    -0.105 S 
ATOM     17  C   UNL     1      25.441  25.857  43.101  1.00  0.00     0.085 A 
ATOM     18  C   UNL     1      24.825  26.923  43.724  1.00  0.00     0.097 A 
BRANCH  17  19
ATOM     19  C   UNL     1      25.299  25.513  41.689  1.00  0.00     0.019 A 
ATOM     20  C   UNL     1      24.817  24.279  41.241  1.00  0.00     0.013 A 
ATOM     21  C   UNL     1      25.643  26.443  40.708  1.00  0.00     0.121 A 
ATOM     22  C   UNL     1      24.702  24.030  39.871  1.00  0.00     0.021 A 
ATOM     23  N   UNL     1      25.543  26.229  39.370  1.00  0.00    -0.264 NA
ATOM     24  C   UNL     1      25.073  25.026  38.985  1.00  0.00     0.111 A 
ENDBRANCH  17  19
ENDBRANCH  12  14
ENDBRANCH   8  12
ENDBRANCH   1   5
BRANCH   2  25
ATOM     25  C   UNL     1      32.717  29.395  45.812  1.00  0.00     0.040 A 
ATOM     26  C   UNL     1      34.101  29.586  45.763  1.00  0.00     0.014 A 
ATOM     27  C   UNL     1      31.880  30.460  46.169  1.00  0.00     0.014 A 
ATOM     28  C   UNL     1      34.644  30.842  46.037  1.00  0.00     0.006 A 
ATOM     29  C   UNL     1      32.427  31.716  46.447  1.00  0.00     0.006 A 
ATOM     30  C   UNL     1      33.812  31.923  46.371  1.00  0.00    -0.034 A 
BRANCH  30  31
ATOM     31  C   UNL     1      34.407  33.284  46.685  1.00  0.00     0.120 C 
BRANCH  31  32
ATOM     32  N   UNL     1      33.803  34.366  45.887  1.00  0.00    -0.297 NA
ATOM     33  C   UNL     1      32.562  33.900  45.242  1.00  0.00     0.100 C 
ATOM     34  C   UNL     1      34.737  34.867  44.849  1.00  0.00     0.100 C 
ATOM     35  C   UNL     1      32.746  32.849  44.113  1.00  0.00     0.099 C 
ATOM     36  C   UNL     1      34.567  34.274  43.423  1.00  0.00     0.099 C 
ATOM     37  N   UNL     1      34.062  32.895  43.449  1.00  0.00    -0.304 NA
ATOM     38  C   UNL     1      34.004  32.313  42.113  1.00  0.00     0.105 C 
ENDBRANCH  31  32
ENDBRANCH  30  31
ENDBRANCH   2  25
TORSDOF 7
ENDMDL
MODEL 5
REMARK VINA RESULT:     2.834      2.468     10.644
REMARK INTER + INTRA:           4.466
REMARK INTER:                   5.246
REMARK INTRA:                  -0.779
REMARK UNBOUND:                 0.472
REMARK SMILES Cc1ccc(NC(=O)c2ccc(CN3CCN(C)CC3)cc2)cc1Nc1nc(-c2cccnc2)cs1
REMARK SMILES IDX 6 1 7 2 8 3 5 5 2 6 3 7 24 8 4 9 23 10 1 11 25 12 26 14
REMARK SMILES IDX 27 15 36 16 28 17 35 18 29 19 30 20 34 21 31 22 33 23 32 24
REMARK SMILES IDX 9 25 10 26 22 27 11 28 21 29 12 30 13 31 14 32 15 33 20 34
REMARK SMILES IDX 16 35 19 36 17 37 18 38
REMARK H PARENT 6 4 25 13
ROOT
ATOM      1  N   UNL     1      27.356  24.961  44.278  1.00  0.00    -0.322 N 
ATOM      2  C   UNL     1      26.082  25.498  44.309  1.00  0.00     0.255 C 
ATOM      3  O   UNL     1      25.514  25.993  45.274  1.00  0.00    -0.269 OA
ATOM      4  H   UNL     1      27.729  24.729  43.368  1.00  0.00     0.170 HD
ENDROOT
BRANCH   1   5
ATOM      5  C   UNL     1      28.249  24.816  45.361  1.00  0.00     0.043 A 
ATOM      6  C   UNL     1      30.006  24.346  47.522  1.00  0.00    -0.027 A 
ATOM      7  C   UNL     1      29.173  23.327  47.044  1.00  0.00     0.008 A 
ATOM      8  C   UNL     1      29.935  25.621  46.931  1.00  0.00     0.045 A 
ATOM      9  C   UNL     1      28.306  23.560  45.974  1.00  0.00     0.026 A 
ATOM     10  C   UNL     1      29.058  25.841  45.853  1.00  0.00     0.052 A 
ATOM     11  C   UNL     1      30.930  24.061  48.674  1.00  0.00     0.046 C 
BRANCH   8  12
ATOM     12  N   UNL     1      30.727  26.690  47.415  1.00  0.00    -0.331 N 
ATOM     13  H   UNL     1      31.212  26.421  48.267  1.00  0.00     0.169 HD
BRANCH  12  14
ATOM     14  C   UNL     1      31.540  27.437  46.619  1.00  0.00     0.187 A 
ATOM     15  N   UNL     1      31.610  28.745  46.753  1.00  0.00    -0.220 NA
ATOM     16  S   UNL     1      32.537  26.808  45.356  1.00  0.00    -0.105 S 
ATOM     17  C   UNL     1      32.478  29.307  45.828  1.00  0.00     0.085 A 
ATOM     18  C   UNL     1      33.081  28.391  44.990  1.00  0.00     0.097 A 
BRANCH  17  19
ATOM     19  C   UNL     1      32.693  30.750  45.790  1.00  0.00     0.019 A 
ATOM     20  C   UNL     1      31.708  31.667  45.410  1.00  0.00     0.013 A 
ATOM     21  C   UNL     1      33.931  31.278  46.155  1.00  0.00     0.121 A 
ATOM     22  C   UNL     1      31.990  33.036  45.410  1.00  0.00     0.021 A 
ATOM     23  N   UNL     1      34.235  32.603  46.164  1.00  0.00    -0.264 NA
ATOM     24  C   UNL     1      33.255  33.449  45.792  1.00  0.00     0.111 A 
ENDBRANCH  17  19
ENDBRANCH  12  14
ENDBRANCH   8  12
ENDBRANCH   1   5
BRANCH   2  25
ATOM     25  C   UNL     1      25.381  25.501  42.994  1.00  0.00     0.040 A 
ATOM     26  C   UNL     1      26.097  25.125  41.854  1.00  0.00     0.014 A 
ATOM     27  C   UNL     1      24.038  25.883  42.879  1.00  0.00     0.014 A 
ATOM     28  C   UNL     1      25.465  25.098  40.609  1.00  0.00     0.006 A 
ATOM     29  C   UNL     1      23.410  25.859  41.630  1.00  0.00     0.006 A 
ATOM     30  C   UNL     1      24.113  25.454  40.486  1.00  0.00    -0.034 A 
BRANCH  30  31
ATOM     31  C   UNL     1      23.434  25.441  39.128  1.00  0.00     0.120 C 
BRANCH  31  32
ATOM     32  N   UNL     1      24.345  25.821  38.033  1.00  0.00    -0.297 NA
ATOM     33  C   UNL     1      23.635  26.637  37.031  1.00  0.00     0.100 C 
ATOM     34  C   UNL     1      24.930  24.630  37.370  1.00  0.00     0.100 C 
ATOM     35  C   UNL     1      22.561  25.889  36.195  1.00  0.00     0.099 C 
ATOM     36  C   UNL     1      24.228  24.148  36.071  1.00  0.00     0.099 C 
ATOM     37  N   UNL     1      22.788  24.436  36.076  1.00  0.00    -0.304 NA
ATOM     38  C   UNL     1      22.120  23.889  34.900  1.00  0.00     0.105 C 
ENDBRANCH  31  32
ENDBRANCH  30  31
ENDBRANCH   2  25
TORSDOF 7
ENDMDL
