MODEL 1
REMARK VINA RESULT:    -6.389      0.000      0.000
REMARK INTER + INTRA:         -10.286
REMARK INTER:                  -8.630
REMARK INTRA:                  -1.656
REMARK UNBOUND:                -1.656
REMARK SMILES COC(=O)C1=C(C)NC(C)=C(C(=O)OC(C)C)[C@@H]1c1cccc2nonc12
REMARK SMILES IDX 7 1 6 2 5 3 18 4 11 5 9 6 8 7 10 8 3 10 4 11 2 12 1 13 19 14
REMARK SMILES IDX 20 15 27 16 21 17 26 18 23 19 22 20 25 21 24 22 12 23 13 24
REMARK SMILES IDX 14 25 15 26 16 27 17 28
REMARK H PARENT 8 9
ROOT
ATOM      1  C   UNL     1     153.036 160.313 143.966  1.00  0.00     0.065 C 
ATOM      2  C   UNL     1     151.980 160.646 144.990  1.00  0.00     0.023 C 
ATOM      3  C   UNL     1     152.216 161.282 146.160  1.00  0.00     0.068 C 
ATOM      4  C   UNL     1     151.088 161.572 147.146  1.00  0.00     0.100 C 
ATOM      5  C   UNL     1     149.743 161.011 146.702  1.00  0.00     0.068 C 
ATOM      6  C   UNL     1     149.598 160.370 145.521  1.00  0.00     0.023 C 
ATOM      7  N   UNL     1     150.695 160.220 144.689  1.00  0.00    -0.362 N 
ATOM      8  C   UNL     1     148.316 159.744 145.037  1.00  0.00     0.065 C 
ATOM      9  H   UNL     1     150.545 159.781 143.784  1.00  0.00     0.166 HD
ENDROOT
BRANCH   3  10
ATOM     10  C   UNL     1     153.572 161.751 146.523  1.00  0.00     0.336 C 
ATOM     11  O   UNL     1     154.138 162.709 146.020  1.00  0.00    -0.246 OA
BRANCH  10  12
ATOM     12  O   UNL     1     154.081 160.951 147.495  1.00  0.00    -0.466 OA
ATOM     13  C   UNL     1     154.764 161.662 148.528  1.00  0.00     0.282 C 
ENDBRANCH  10  12
ENDBRANCH   3  10
BRANCH   4  14
ATOM     14  C   UNL     1     150.986 163.060 147.456  1.00  0.00    -0.004 A 
ATOM     15  C   UNL     1     150.549 163.988 146.470  1.00  0.00     0.007 A 
ATOM     16  C   UNL     1     151.311 163.675 148.692  1.00  0.00     0.139 A 
ATOM     17  C   UNL     1     150.438 165.386 146.687  1.00  0.00     0.003 A 
ATOM     18  N   UNL     1     151.763 163.126 149.827  1.00  0.00    -0.049 NA
ATOM     19  C   UNL     1     151.197 165.113 148.909  1.00  0.00     0.135 A 
ATOM     20  C   UNL     1     150.754 165.999 147.910  1.00  0.00     0.034 A 
ATOM     21  O   UNL     1     151.918 164.166 150.723  1.00  0.00    -0.243 OA
ATOM     22  N   UNL     1     151.577 165.385 150.163  1.00  0.00    -0.050 NA
ENDBRANCH   4  14
BRANCH   5  23
ATOM     23  C   UNL     1     148.645 161.196 147.674  1.00  0.00     0.337 C 
ATOM     24  O   UNL     1     147.765 162.032 147.535  1.00  0.00    -0.246 OA
BRANCH  23  25
ATOM     25  O   UNL     1     148.722 160.257 148.647  1.00  0.00    -0.460 OA
BRANCH  25  26
ATOM     26  C   UNL     1     147.971 160.522 149.845  1.00  0.00     0.170 C 
ATOM     27  C   UNL     1     147.553 159.174 150.419  1.00  0.00     0.052 C 
ATOM     28  C   UNL     1     148.843 161.287 150.833  1.00  0.00     0.052 C 
ENDBRANCH  25  26
ENDBRANCH  23  25
ENDBRANCH   5  23
TORSDOF 6
ENDMDL
MODEL 2
REMARK VINA RESULT:    -6.349      4.867      6.688
REMARK INTER + INTRA:         -10.232
REMARK INTER:                  -8.753
REMARK INTRA:                  -1.480
REMARK UNBOUND:                -1.656
REMARK SMILES COC(=O)C1=C(C)NC(C)=C(C(=O)OC(C)C)[C@@H]1c1cccc2nonc12
REMARK SMILES IDX 7 1 6 2 5 3 18 4 11 5 9 6 8 7 10 8 3 10 4 11 2 12 1 13 19 14
REMARK SMILES IDX 20 15 27 16 21 17 26 18 23 19 22 20 25 21 24 22 12 23 13 24
REMARK SMILES IDX 14 25 15 26 16 27 17 28
REMARK H PARENT 8 9
ROOT
ATOM      1  C   UNL     1     153.134 153.756 152.792  1.00  0.00     0.065 C 
ATOM      2  C   UNL     1     152.501 154.912 152.060  1.00  0.00     0.023 C 
ATOM      3  C   UNL     1     153.123 156.080 151.781  1.00  0.00     0.068 C 
ATOM      4  C   UNL     1     152.404 157.205 151.042  1.00  0.00     0.100 C 
ATOM      5  C   UNL     1     150.943 156.890 150.745  1.00  0.00     0.068 C 
ATOM      6  C   UNL     1     150.393 155.701 151.075  1.00  0.00     0.023 C 
ATOM      7  N   UNL     1     151.173 154.739 151.697  1.00  0.00    -0.362 N 
ATOM      8  C   UNL     1     148.947 155.336 150.862  1.00  0.00     0.065 C 
ATOM      9  H   UNL     1     150.747 153.835 151.887  1.00  0.00     0.166 HD
ENDROOT
BRANCH   3  10
ATOM     10  C   UNL     1     154.538 156.307 152.152  1.00  0.00     0.336 C 
ATOM     11  O   UNL     1     155.483 155.652 151.741  1.00  0.00    -0.246 OA
BRANCH  10  12
ATOM     12  O   UNL     1     154.614 157.352 153.017  1.00  0.00    -0.466 OA
ATOM     13  C   UNL     1     155.696 158.244 152.749  1.00  0.00     0.282 C 
ENDBRANCH  10  12
ENDBRANCH   3  10
BRANCH   4  14
ATOM     14  C   UNL     1     153.148 157.605 149.775  1.00  0.00    -0.004 A 
ATOM     15  C   UNL     1     153.298 156.695 148.692  1.00  0.00     0.007 A 
ATOM     16  C   UNL     1     153.763 158.860 149.534  1.00  0.00     0.139 A 
ATOM     17  C   UNL     1     153.984 156.998 147.486  1.00  0.00     0.003 A 
ATOM     18  N   UNL     1     153.835 159.941 150.322  1.00  0.00    -0.049 NA
ATOM     19  C   UNL     1     154.468 159.166 148.294  1.00  0.00     0.135 A 
ATOM     20  C   UNL     1     154.591 158.240 147.242  1.00  0.00     0.034 A 
ATOM     21  O   UNL     1     154.546 160.889 149.610  1.00  0.00    -0.243 OA
ATOM     22  N   UNL     1     154.939 160.416 148.371  1.00  0.00    -0.050 NA
ENDBRANCH   4  14
BRANCH   5  23
ATOM     23  C   UNL     1     150.191 157.992 150.108  1.00  0.00     0.337 C 
ATOM     24  O   UNL     1     150.030 158.079 148.901  1.00  0.00    -0.246 OA
BRANCH  23  25
ATOM     25  O   UNL     1     149.651 158.795 151.056  1.00  0.00    -0.460 OA
BRANCH  25  26
ATOM     26  C   UNL     1     148.555 159.625 150.634  1.00  0.00     0.170 C 
ATOM     27  C   UNL     1     147.275 158.835 150.879  1.00  0.00     0.052 C 
ATOM     28  C   UNL     1     148.557 160.919 151.440  1.00  0.00     0.052 C 
ENDBRANCH  25  26
ENDBRANCH  23  25
ENDBRANCH   5  23
TORSDOF 6
ENDMDL
MODEL 3
REMARK VINA RESULT:    -6.338      6.708     10.133
REMARK INTER + INTRA:         -10.217
REMARK INTER:                  -8.883
REMARK INTRA:                  -1.334
REMARK UNBOUND:                -1.656
REMARK SMILES COC(=O)C1=C(C)NC(C)=C(C(=O)OC(C)C)[C@@H]1c1cccc2nonc12
REMARK SMILES IDX 7 1 6 2 5 3 18 4 11 5 9 6 8 7 10 8 3 10 4 11 2 12 1 13 19 14
REMARK SMILES IDX 20 15 27 16 21 17 26 18 23 19 22 20 25 21 24 22 12 23 13 24
REMARK SMILES IDX 14 25 15 26 16 27 17 28
REMARK H PARENT 8 9
ROOT
ATOM      1  C   UNL     1     151.075 165.425 153.345  1.00  0.00     0.065 C 
ATOM      2  C   UNL     1     150.759 166.891 153.503  1.00  0.00     0.023 C 
ATOM      3  C   UNL     1     151.123 167.856 152.629  1.00  0.00     0.068 C 
ATOM      4  C   UNL     1     150.769 169.320 152.871  1.00  0.00     0.100 C 
ATOM      5  C   UNL     1     150.057 169.554 154.198  1.00  0.00     0.068 C 
ATOM      6  C   UNL     1     149.745 168.532 155.025  1.00  0.00     0.023 C 
ATOM      7  N   UNL     1     150.076 167.237 154.660  1.00  0.00    -0.362 N 
ATOM      8  C   UNL     1     149.091 168.687 156.373  1.00  0.00     0.065 C 
ATOM      9  H   UNL     1     149.782 166.483 155.276  1.00  0.00     0.166 HD
ENDROOT
BRANCH   3  10
ATOM     10  C   UNL     1     151.854 167.531 151.383  1.00  0.00     0.336 C 
ATOM     11  O   UNL     1     153.056 167.671 151.221  1.00  0.00    -0.246 OA
BRANCH  10  12
ATOM     12  O   UNL     1     150.979 167.059 150.458  1.00  0.00    -0.466 OA
ATOM     13  C   UNL     1     151.398 167.267 149.109  1.00  0.00     0.282 C 
ENDBRANCH  10  12
ENDBRANCH   3  10
BRANCH   4  14
ATOM     14  C   UNL     1     149.971 169.901 151.711  1.00  0.00    -0.004 A 
ATOM     15  C   UNL     1     148.562 169.726 151.627  1.00  0.00     0.007 A 
ATOM     16  C   UNL     1     150.504 170.635 150.621  1.00  0.00     0.139 A 
ATOM     17  C   UNL     1     147.757 170.233 150.573  1.00  0.00     0.003 A 
ATOM     18  N   UNL     1     151.773 170.978 150.361  1.00  0.00    -0.049 NA
ATOM     19  C   UNL     1     149.674 171.152 149.539  1.00  0.00     0.135 A 
ATOM     20  C   UNL     1     148.281 170.964 149.494  1.00  0.00     0.034 A 
ATOM     21  O   UNL     1     151.745 171.685 149.175  1.00  0.00    -0.243 OA
ATOM     22  N   UNL     1     150.463 171.790 148.666  1.00  0.00    -0.050 NA
ENDBRANCH   4  14
BRANCH   5  23
ATOM     23  C   UNL     1     149.777 170.972 154.507  1.00  0.00     0.337 C 
ATOM     24  O   UNL     1     148.648 171.438 154.535  1.00  0.00    -0.246 OA
BRANCH  23  25
ATOM     25  O   UNL     1     150.924 171.612 154.838  1.00  0.00    -0.460 OA
BRANCH  25  26
ATOM     26  C   UNL     1     150.890 172.390 156.047  1.00  0.00     0.170 C 
ATOM     27  C   UNL     1     151.424 171.504 157.166  1.00  0.00     0.052 C 
ATOM     28  C   UNL     1     151.757 173.632 155.878  1.00  0.00     0.052 C 
ENDBRANCH  25  26
ENDBRANCH  23  25
ENDBRANCH   5  23
TORSDOF 6
ENDMDL
MODEL 4
REMARK VINA RESULT:    -6.326      8.630     12.283
REMARK INTER + INTRA:         -10.201
REMARK INTER:                  -8.669
REMARK INTRA:                  -1.533
REMARK UNBOUND:                -1.656
REMARK SMILES COC(=O)C1=C(C)NC(C)=C(C(=O)OC(C)C)[C@@H]1c1cccc2nonc12
REMARK SMILES IDX 7 1 6 2 5 3 18 4 11 5 9 6 8 7 10 8 3 10 4 11 2 12 1 13 19 14
REMARK SMILES IDX 20 15 27 16 21 17 26 18 23 19 22 20 25 21 24 22 12 23 13 24
REMARK SMILES IDX 14 25 15 26 16 27 17 28
REMARK H PARENT 8 9
ROOT
ATOM      1  C   UNL     1     151.645 174.700 156.280  1.00  0.00     0.065 C 
ATOM      2  C   UNL     1     151.081 173.829 155.186  1.00  0.00     0.023 C 
ATOM      3  C   UNL     1     151.106 172.477 155.190  1.00  0.00     0.068 C 
ATOM      4  C   UNL     1     150.519 171.670 154.036  1.00  0.00     0.100 C 
ATOM      5  C   UNL     1     149.999 172.540 152.898  1.00  0.00     0.068 C 
ATOM      6  C   UNL     1     150.029 173.889 152.967  1.00  0.00     0.023 C 
ATOM      7  N   UNL     1     150.540 174.501 154.100  1.00  0.00    -0.362 N 
ATOM      8  C   UNL     1     149.582 174.815 151.866  1.00  0.00     0.065 C 
ATOM      9  H   UNL     1     150.502 175.517 154.147  1.00  0.00     0.166 HD
ENDROOT
BRANCH   3  10
ATOM     10  C   UNL     1     151.675 171.719 156.327  1.00  0.00     0.336 C 
ATOM     11  O   UNL     1     151.034 171.292 157.274  1.00  0.00    -0.246 OA
BRANCH  10  12
ATOM     12  O   UNL     1     153.015 171.578 156.149  1.00  0.00    -0.466 OA
ATOM     13  C   UNL     1     153.783 171.838 157.323  1.00  0.00     0.282 C 
ENDBRANCH  10  12
ENDBRANCH   3  10
BRANCH   4  14
ATOM     14  C   UNL     1     149.447 170.701 154.519  1.00  0.00    -0.004 A 
ATOM     15  C   UNL     1     148.200 171.173 155.015  1.00  0.00     0.007 A 
ATOM     16  C   UNL     1     149.557 169.288 154.549  1.00  0.00     0.139 A 
ATOM     17  C   UNL     1     147.161 170.330 155.488  1.00  0.00     0.003 A 
ATOM     18  N   UNL     1     150.577 168.503 154.177  1.00  0.00    -0.049 NA
ATOM     19  C   UNL     1     148.486 168.426 155.037  1.00  0.00     0.135 A 
ATOM     20  C   UNL     1     147.263 168.929 155.515  1.00  0.00     0.034 A 
ATOM     21  O   UNL     1     150.167 167.204 154.413  1.00  0.00    -0.243 OA
ATOM     22  N   UNL     1     148.890 167.153 154.943  1.00  0.00    -0.050 NA
ENDBRANCH   4  14
BRANCH   5  23
ATOM     23  C   UNL     1     149.503 171.791 151.724  1.00  0.00     0.337 C 
ATOM     24  O   UNL     1     148.327 171.769 151.395  1.00  0.00    -0.246 OA
BRANCH  23  25
ATOM     25  O   UNL     1     150.542 171.243 151.050  1.00  0.00    -0.460 OA
BRANCH  25  26
ATOM     26  C   UNL     1     150.406 169.856 150.694  1.00  0.00     0.170 C 
ATOM     27  C   UNL     1     150.009 169.808 149.223  1.00  0.00     0.052 C 
ATOM     28  C   UNL     1     151.731 169.139 150.922  1.00  0.00     0.052 C 
ENDBRANCH  25  26
ENDBRANCH  23  25
ENDBRANCH   5  23
TORSDOF 6
ENDMDL
MODEL 5
REMARK VINA RESULT:    -6.324      4.329      8.061
REMARK INTER + INTRA:         -10.199
REMARK INTER:                  -8.524
REMARK INTRA:                  -1.675
REMARK UNBOUND:                -1.656
REMARK SMILES COC(=O)C1=C(C)NC(C)=C(C(=O)OC(C)C)[C@@H]1c1cccc2nonc12
REMARK SMILES IDX 7 1 6 2 5 3 18 4 11 5 9 6 8 7 10 8 3 10 4 11 2 12 1 13 19 14
REMARK SMILES IDX 20 15 27 16 21 17 26 18 23 19 22 20 25 21 24 22 12 23 13 24
REMARK SMILES IDX 14 25 15 26 16 27 17 28
REMARK H PARENT 8 9
ROOT
ATOM      1  C   UNL     1     145.954 157.853 145.190  1.00  0.00     0.065 C 
ATOM      2  C   UNL     1     146.626 158.063 146.523  1.00  0.00     0.023 C 
ATOM      3  C   UNL     1     146.314 157.393 147.656  1.00  0.00     0.068 C 
ATOM      4  C   UNL     1     147.040 157.674 148.969  1.00  0.00     0.100 C 
ATOM      5  C   UNL     1     148.054 158.807 148.864  1.00  0.00     0.068 C 
ATOM      6  C   UNL     1     148.292 159.438 147.693  1.00  0.00     0.023 C 
ATOM      7  N   UNL     1     147.602 159.048 146.556  1.00  0.00    -0.362 N 
ATOM      8  C   UNL     1     149.240 160.597 147.520  1.00  0.00     0.065 C 
ATOM      9  H   UNL     1     147.840 159.504 145.679  1.00  0.00     0.166 HD
ENDROOT
BRANCH   3  10
ATOM     10  C   UNL     1     145.278 156.336 147.666  1.00  0.00     0.336 C 
ATOM     11  O   UNL     1     145.417 155.216 147.202  1.00  0.00    -0.246 OA
BRANCH  10  12
ATOM     12  O   UNL     1     144.156 156.811 148.268  1.00  0.00    -0.466 OA
ATOM     13  C   UNL     1     143.770 156.075 149.429  1.00  0.00     0.282 C 
ENDBRANCH  10  12
ENDBRANCH   3  10
BRANCH   4  14
ATOM     14  C   UNL     1     147.681 156.414 149.534  1.00  0.00    -0.004 A 
ATOM     15  C   UNL     1     147.355 155.944 150.836  1.00  0.00     0.007 A 
ATOM     16  C   UNL     1     148.643 155.605 148.877  1.00  0.00     0.139 A 
ATOM     17  C   UNL     1     147.918 154.783 151.428  1.00  0.00     0.003 A 
ATOM     18  N   UNL     1     149.191 155.746 147.662  1.00  0.00    -0.049 NA
ATOM     19  C   UNL     1     149.220 154.414 149.490  1.00  0.00     0.135 A 
ATOM     20  C   UNL     1     148.868 153.976 150.779  1.00  0.00     0.034 A 
ATOM     21  O   UNL     1     150.068 154.689 147.512  1.00  0.00    -0.243 OA
ATOM     22  N   UNL     1     150.092 153.874 148.630  1.00  0.00    -0.050 NA
ENDBRANCH   4  14
BRANCH   5  23
ATOM     23  C   UNL     1     148.713 159.166 150.137  1.00  0.00     0.337 C 
ATOM     24  O   UNL     1     148.101 159.570 151.114  1.00  0.00    -0.246 OA
BRANCH  23  25
ATOM     25  O   UNL     1     150.037 158.886 150.070  1.00  0.00    -0.460 OA
BRANCH  25  26
ATOM     26  C   UNL     1     150.646 158.410 151.283  1.00  0.00     0.170 C 
ATOM     27  C   UNL     1     151.332 157.091 150.950  1.00  0.00     0.052 C 
ATOM     28  C   UNL     1     151.655 159.436 151.783  1.00  0.00     0.052 C 
ENDBRANCH  25  26
ENDBRANCH  23  25
ENDBRANCH   5  23
TORSDOF 6
ENDMDL
MODEL 6
REMARK VINA RESULT:    -6.319      2.074      5.223
REMARK INTER + INTRA:         -10.192
REMARK INTER:                  -8.749
REMARK INTRA:                  -1.443
REMARK UNBOUND:                -1.656
REMARK SMILES COC(=O)C1=C(C)NC(C)=C(C(=O)OC(C)C)[C@@H]1c1cccc2nonc12
REMARK SMILES IDX 7 1 6 2 5 3 18 4 11 5 9 6 8 7 10 8 3 10 4 11 2 12 1 13 19 14
REMARK SMILES IDX 20 15 27 16 21 17 26 18 23 19 22 20 25 21 24 22 12 23 13 24
REMARK SMILES IDX 14 25 15 26 16 27 17 28
REMARK H PARENT 8 9
ROOT
ATOM      1  C   UNL     1     151.749 160.157 152.340  1.00  0.00     0.065 C 
ATOM      2  C   UNL     1     152.035 160.581 150.921  1.00  0.00     0.023 C 
ATOM      3  C   UNL     1     151.103 161.028 150.049  1.00  0.00     0.068 C 
ATOM      4  C   UNL     1     151.477 161.430 148.625  1.00  0.00     0.100 C 
ATOM      5  C   UNL     1     152.948 161.198 148.303  1.00  0.00     0.068 C 
ATOM      6  C   UNL     1     153.811 160.730 149.232  1.00  0.00     0.023 C 
ATOM      7  N   UNL     1     153.353 160.455 150.510  1.00  0.00    -0.362 N 
ATOM      8  C   UNL     1     155.265 160.427 148.976  1.00  0.00     0.065 C 
ATOM      9  H   UNL     1     154.035 160.154 151.202  1.00  0.00     0.166 HD
ENDROOT
BRANCH   3  10
ATOM     10  C   UNL     1     149.684 161.177 150.446  1.00  0.00     0.336 C 
ATOM     11  O   UNL     1     149.262 162.006 151.236  1.00  0.00    -0.246 OA
BRANCH  10  12
ATOM     12  O   UNL     1     148.935 160.249 149.794  1.00  0.00    -0.466 OA
ATOM     13  C   UNL     1     147.810 160.796 149.108  1.00  0.00     0.282 C 
ENDBRANCH  10  12
ENDBRANCH   3  10
BRANCH   4  14
ATOM     14  C   UNL     1     151.069 162.866 148.324  1.00  0.00    -0.004 A 
ATOM     15  C   UNL     1     150.165 163.167 147.268  1.00  0.00     0.007 A 
ATOM     16  C   UNL     1     151.526 164.020 149.009  1.00  0.00     0.139 A 
ATOM     17  C   UNL     1     149.747 164.480 146.927  1.00  0.00     0.003 A 
ATOM     18  N   UNL     1     152.382 164.122 150.035  1.00  0.00    -0.049 NA
ATOM     19  C   UNL     1     151.095 165.368 148.654  1.00  0.00     0.135 A 
ATOM     20  C   UNL     1     150.193 165.626 147.606  1.00  0.00     0.034 A 
ATOM     21  O   UNL     1     152.482 165.471 150.319  1.00  0.00    -0.243 OA
ATOM     22  N   UNL     1     151.699 166.236 149.473  1.00  0.00    -0.050 NA
ENDBRANCH   4  14
BRANCH   5  23
ATOM     23  C   UNL     1     153.328 161.493 146.906  1.00  0.00     0.337 C 
ATOM     24  O   UNL     1     154.025 162.446 146.591  1.00  0.00    -0.246 OA
BRANCH  23  25
ATOM     25  O   UNL     1     152.878 160.514 146.085  1.00  0.00    -0.460 OA
BRANCH  25  26
ATOM     26  C   UNL     1     153.512 160.426 144.796  1.00  0.00     0.170 C 
ATOM     27  C   UNL     1     154.559 159.323 144.887  1.00  0.00     0.052 C 
ATOM     28  C   UNL     1     152.466 160.098 143.737  1.00  0.00     0.052 C 
ENDBRANCH  25  26
ENDBRANCH  23  25
ENDBRANCH   5  23
TORSDOF 6
ENDMDL
MODEL 7
REMARK VINA RESULT:    -6.299      3.820      6.038
REMARK INTER + INTRA:         -10.165
REMARK INTER:                  -8.323
REMARK INTRA:                  -1.841
REMARK UNBOUND:                -1.656
REMARK SMILES COC(=O)C1=C(C)NC(C)=C(C(=O)OC(C)C)[C@@H]1c1cccc2nonc12
REMARK SMILES IDX 7 1 6 2 5 3 18 4 11 5 9 6 8 7 10 8 3 10 4 11 2 12 1 13 19 14
REMARK SMILES IDX 20 15 27 16 21 17 26 18 23 19 22 20 25 21 24 22 12 23 13 24
REMARK SMILES IDX 14 25 15 26 16 27 17 28
REMARK H PARENT 8 9
ROOT
ATOM      1  C   UNL     1     154.151 159.573 144.779  1.00  0.00     0.065 C 
ATOM      2  C   UNL     1     154.422 159.349 146.245  1.00  0.00     0.023 C 
ATOM      3  C   UNL     1     153.794 159.999 147.251  1.00  0.00     0.068 C 
ATOM      4  C   UNL     1     154.135 159.717 148.712  1.00  0.00     0.100 C 
ATOM      5  C   UNL     1     155.273 158.718 148.881  1.00  0.00     0.068 C 
ATOM      6  C   UNL     1     155.860 158.126 147.817  1.00  0.00     0.023 C 
ATOM      7  N   UNL     1     155.417 158.429 146.539  1.00  0.00    -0.362 N 
ATOM      8  C   UNL     1     157.022 157.170 147.899  1.00  0.00     0.065 C 
ATOM      9  H   UNL     1     155.841 157.930 145.761  1.00  0.00     0.166 HD
ENDROOT
BRANCH   3  10
ATOM     10  C   UNL     1     152.727 160.989 146.982  1.00  0.00     0.336 C 
ATOM     11  O   UNL     1     151.599 160.717 146.603  1.00  0.00    -0.246 OA
BRANCH  10  12
ATOM     12  O   UNL     1     153.203 162.239 147.222  1.00  0.00    -0.466 OA
ATOM     13  C   UNL     1     152.321 163.053 147.995  1.00  0.00     0.282 C 
ENDBRANCH  10  12
ENDBRANCH   3  10
BRANCH   4  14
ATOM     14  C   UNL     1     152.905 159.286 149.500  1.00  0.00    -0.004 A 
ATOM     15  C   UNL     1     152.189 158.106 149.156  1.00  0.00     0.007 A 
ATOM     16  C   UNL     1     152.341 159.976 150.603  1.00  0.00     0.139 A 
ATOM     17  C   UNL     1     151.033 157.649 149.841  1.00  0.00     0.003 A 
ATOM     18  N   UNL     1     152.734 161.115 151.189  1.00  0.00    -0.049 NA
ATOM     19  C   UNL     1     151.152 159.503 151.302  1.00  0.00     0.135 A 
ATOM     20  C   UNL     1     150.473 158.326 150.937  1.00  0.00     0.034 A 
ATOM     21  O   UNL     1     151.839 161.347 152.216  1.00  0.00    -0.243 OA
ATOM     22  N   UNL     1     150.867 160.365 152.285  1.00  0.00    -0.050 NA
ENDBRANCH   4  14
BRANCH   5  23
ATOM     23  C   UNL     1     155.690 158.487 150.279  1.00  0.00     0.337 C 
ATOM     24  O   UNL     1     156.274 159.326 150.949  1.00  0.00    -0.246 OA
BRANCH  23  25
ATOM     25  O   UNL     1     155.245 157.281 150.704  1.00  0.00    -0.460 OA
BRANCH  25  26
ATOM     26  C   UNL     1     155.282 157.055 152.124  1.00  0.00     0.170 C 
ATOM     27  C   UNL     1     153.877 157.312 152.656  1.00  0.00     0.052 C 
ATOM     28  C   UNL     1     155.713 155.620 152.401  1.00  0.00     0.052 C 
ENDBRANCH  25  26
ENDBRANCH  23  25
ENDBRANCH   5  23
TORSDOF 6
ENDMDL
MODEL 8
REMARK VINA RESULT:    -6.275      4.192      6.526
REMARK INTER + INTRA:         -10.133
REMARK INTER:                  -8.282
REMARK INTRA:                  -1.850
REMARK UNBOUND:                -1.656
REMARK SMILES COC(=O)C1=C(C)NC(C)=C(C(=O)OC(C)C)[C@@H]1c1cccc2nonc12
REMARK SMILES IDX 7 1 6 2 5 3 18 4 11 5 9 6 8 7 10 8 3 10 4 11 2 12 1 13 19 14
REMARK SMILES IDX 20 15 27 16 21 17 26 18 23 19 22 20 25 21 24 22 12 23 13 24
REMARK SMILES IDX 14 25 15 26 16 27 17 28
REMARK H PARENT 8 9
ROOT
ATOM      1  C   UNL     1     148.951 155.625 150.211  1.00  0.00     0.065 C 
ATOM      2  C   UNL     1     149.665 156.910 150.546  1.00  0.00     0.023 C 
ATOM      3  C   UNL     1     150.971 156.998 150.887  1.00  0.00     0.068 C 
ATOM      4  C   UNL     1     151.614 158.341 151.219  1.00  0.00     0.100 C 
ATOM      5  C   UNL     1     150.627 159.502 151.197  1.00  0.00     0.068 C 
ATOM      6  C   UNL     1     149.330 159.323 150.861  1.00  0.00     0.023 C 
ATOM      7  N   UNL     1     148.883 158.055 150.525  1.00  0.00    -0.362 N 
ATOM      8  C   UNL     1     148.285 160.408 150.865  1.00  0.00     0.065 C 
ATOM      9  H   UNL     1     147.916 157.959 150.226  1.00  0.00     0.166 HD
ENDROOT
BRANCH   3  10
ATOM     10  C   UNL     1     151.841 155.802 150.923  1.00  0.00     0.336 C 
ATOM     11  O   UNL     1     152.287 155.231 149.941  1.00  0.00    -0.246 OA
BRANCH  10  12
ATOM     12  O   UNL     1     152.059 155.443 152.215  1.00  0.00    -0.466 OA
ATOM     13  C   UNL     1     153.429 155.179 152.517  1.00  0.00     0.282 C 
ENDBRANCH  10  12
ENDBRANCH   3  10
BRANCH   4  14
ATOM     14  C   UNL     1     152.813 158.624 150.323  1.00  0.00    -0.004 A 
ATOM     15  C   UNL     1     152.680 158.658 148.908  1.00  0.00     0.007 A 
ATOM     16  C   UNL     1     154.141 158.858 150.762  1.00  0.00     0.139 A 
ATOM     17  C   UNL     1     153.754 158.907 148.013  1.00  0.00     0.003 A 
ATOM     18  N   UNL     1     154.637 158.887 152.006  1.00  0.00    -0.049 NA
ATOM     19  C   UNL     1     155.242 159.112 149.839  1.00  0.00     0.135 A 
ATOM     20  C   UNL     1     155.070 159.144 148.443  1.00  0.00     0.034 A 
ATOM     21  O   UNL     1     155.986 159.155 151.876  1.00  0.00    -0.243 OA
ATOM     22  N   UNL     1     156.361 159.288 150.551  1.00  0.00    -0.050 NA
ENDBRANCH   4  14
BRANCH   5  23
ATOM     23  C   UNL     1     151.196 160.805 151.599  1.00  0.00     0.337 C 
ATOM     24  O   UNL     1     151.584 161.042 152.734  1.00  0.00    -0.246 OA
BRANCH  23  25
ATOM     25  O   UNL     1     151.304 161.619 150.522  1.00  0.00    -0.460 OA
BRANCH  25  26
ATOM     26  C   UNL     1     152.354 162.600 150.571  1.00  0.00     0.170 C 
ATOM     27  C   UNL     1     153.258 162.350 149.370  1.00  0.00     0.052 C 
ATOM     28  C   UNL     1     151.748 163.997 150.512  1.00  0.00     0.052 C 
ENDBRANCH  25  26
ENDBRANCH  23  25
ENDBRANCH   5  23
TORSDOF 6
ENDMDL
MODEL 9
REMARK VINA RESULT:    -6.237      4.051      7.472
REMARK INTER + INTRA:         -10.081
REMARK INTER:                  -8.641
REMARK INTRA:                  -1.440
REMARK UNBOUND:                -1.656
REMARK SMILES COC(=O)C1=C(C)NC(C)=C(C(=O)OC(C)C)[C@@H]1c1cccc2nonc12
REMARK SMILES IDX 7 1 6 2 5 3 18 4 11 5 9 6 8 7 10 8 3 10 4 11 2 12 1 13 19 14
REMARK SMILES IDX 20 15 27 16 21 17 26 18 23 19 22 20 25 21 24 22 12 23 13 24
REMARK SMILES IDX 14 25 15 26 16 27 17 28
REMARK H PARENT 8 9
ROOT
ATOM      1  C   UNL     1     149.381 159.736 151.351  1.00  0.00     0.065 C 
ATOM      2  C   UNL     1     148.957 159.408 149.941  1.00  0.00     0.023 C 
ATOM      3  C   UNL     1     148.962 158.167 149.405  1.00  0.00     0.068 C 
ATOM      4  C   UNL     1     148.524 157.925 147.963  1.00  0.00     0.100 C 
ATOM      5  C   UNL     1     148.174 159.207 147.218  1.00  0.00     0.068 C 
ATOM      6  C   UNL     1     148.213 160.413 147.827  1.00  0.00     0.023 C 
ATOM      7  N   UNL     1     148.576 160.490 149.162  1.00  0.00    -0.362 N 
ATOM      8  C   UNL     1     147.933 161.727 147.145  1.00  0.00     0.065 C 
ATOM      9  H   UNL     1     148.546 161.404 149.607  1.00  0.00     0.166 HD
ENDROOT
BRANCH   3  10
ATOM     10  C   UNL     1     149.362 156.985 150.200  1.00  0.00     0.336 C 
ATOM     11  O   UNL     1     148.607 156.316 150.888  1.00  0.00    -0.246 OA
BRANCH  10  12
ATOM     12  O   UNL     1     150.694 156.768 150.045  1.00  0.00    -0.466 OA
ATOM     13  C   UNL     1     151.340 156.278 151.220  1.00  0.00     0.282 C 
ENDBRANCH  10  12
ENDBRANCH   3  10
BRANCH   4  14
ATOM     14  C   UNL     1     147.383 156.918 147.887  1.00  0.00    -0.004 A 
ATOM     15  C   UNL     1     147.546 155.672 147.222  1.00  0.00     0.007 A 
ATOM     16  C   UNL     1     146.083 157.093 148.426  1.00  0.00     0.139 A 
ATOM     17  C   UNL     1     146.526 154.691 147.106  1.00  0.00     0.003 A 
ATOM     18  N   UNL     1     145.570 158.133 149.098  1.00  0.00    -0.049 NA
ATOM     19  C   UNL     1     145.038 156.084 148.303  1.00  0.00     0.135 A 
ATOM     20  C   UNL     1     145.239 154.859 147.642  1.00  0.00     0.034 A 
ATOM     21  O   UNL     1     144.264 157.793 149.394  1.00  0.00    -0.243 OA
ATOM     22  N   UNL     1     143.933 156.541 148.904  1.00  0.00    -0.050 NA
ENDBRANCH   4  14
BRANCH   5  23
ATOM     23  C   UNL     1     147.830 159.019 145.793  1.00  0.00     0.337 C 
ATOM     24  O   UNL     1     146.712 159.220 145.345  1.00  0.00    -0.246 OA
BRANCH  23  25
ATOM     25  O   UNL     1     148.940 158.701 145.085  1.00  0.00    -0.460 OA
BRANCH  25  26
ATOM     26  C   UNL     1     149.885 159.765 144.873  1.00  0.00     0.170 C 
ATOM     27  C   UNL     1     151.257 159.121 144.718  1.00  0.00     0.052 C 
ATOM     28  C   UNL     1     149.504 160.541 143.618  1.00  0.00     0.052 C 
ENDBRANCH  25  26
ENDBRANCH  23  25
ENDBRANCH   5  23
TORSDOF 6
ENDMDL
MODEL 10
REMARK VINA RESULT:    -6.179      2.835      4.919
REMARK INTER + INTRA:         -10.003
REMARK INTER:                  -8.340
REMARK INTRA:                  -1.662
REMARK UNBOUND:                -1.656
REMARK SMILES COC(=O)C1=C(C)NC(C)=C(C(=O)OC(C)C)[C@@H]1c1cccc2nonc12
REMARK SMILES IDX 7 1 6 2 5 3 18 4 11 5 9 6 8 7 10 8 3 10 4 11 2 12 1 13 19 14
REMARK SMILES IDX 20 15 27 16 21 17 26 18 23 19 22 20 25 21 24 22 12 23 13 24
REMARK SMILES IDX 14 25 15 26 16 27 17 28
REMARK H PARENT 8 9
ROOT
ATOM      1  C   UNL     1     156.026 159.362 149.637  1.00  0.00     0.065 C 
ATOM      2  C   UNL     1     154.819 160.109 149.129  1.00  0.00     0.023 C 
ATOM      3  C   UNL     1     153.582 160.033 149.671  1.00  0.00     0.068 C 
ATOM      4  C   UNL     1     152.411 160.819 149.088  1.00  0.00     0.100 C 
ATOM      5  C   UNL     1     152.777 161.597 147.830  1.00  0.00     0.068 C 
ATOM      6  C   UNL     1     154.038 161.605 147.343  1.00  0.00     0.023 C 
ATOM      7  N   UNL     1     155.026 160.890 148.002  1.00  0.00    -0.362 N 
ATOM      8  C   UNL     1     154.466 162.306 146.080  1.00  0.00     0.065 C 
ATOM      9  H   UNL     1     155.975 160.956 147.643  1.00  0.00     0.166 HD
ENDROOT
BRANCH   3  10
ATOM     10  C   UNL     1     153.316 159.211 150.872  1.00  0.00     0.336 C 
ATOM     11  O   UNL     1     153.456 159.589 152.025  1.00  0.00    -0.246 OA
BRANCH  10  12
ATOM     12  O   UNL     1     152.897 157.976 150.489  1.00  0.00    -0.466 OA
ATOM     13  C   UNL     1     151.622 157.611 151.018  1.00  0.00     0.282 C 
ENDBRANCH  10  12
ENDBRANCH   3  10
BRANCH   4  14
ATOM     14  C   UNL     1     151.774 161.728 150.130  1.00  0.00    -0.004 A 
ATOM     15  C   UNL     1     152.485 162.833 150.674  1.00  0.00     0.007 A 
ATOM     16  C   UNL     1     150.471 161.587 150.671  1.00  0.00     0.139 A 
ATOM     17  C   UNL     1     151.957 163.717 151.652  1.00  0.00     0.003 A 
ATOM     18  N   UNL     1     149.533 160.667 150.409  1.00  0.00    -0.049 NA
ATOM     19  C   UNL     1     149.933 162.496 151.677  1.00  0.00     0.135 A 
ATOM     20  C   UNL     1     150.665 163.583 152.187  1.00  0.00     0.034 A 
ATOM     21  O   UNL     1     148.450 160.984 151.206  1.00  0.00    -0.243 OA
ATOM     22  N   UNL     1     148.693 162.100 151.987  1.00  0.00    -0.050 NA
ENDBRANCH   4  14
BRANCH   5  23
ATOM     23  C   UNL     1     151.647 162.300 147.187  1.00  0.00     0.337 C 
ATOM     24  O   UNL     1     150.661 161.722 146.756  1.00  0.00    -0.246 OA
BRANCH  23  25
ATOM     25  O   UNL     1     151.837 163.640 147.248  1.00  0.00    -0.460 OA
BRANCH  25  26
ATOM     26  C   UNL     1     150.699 164.424 147.645  1.00  0.00     0.170 C 
ATOM     27  C   UNL     1     151.212 165.526 148.564  1.00  0.00     0.052 C 
ATOM     28  C   UNL     1     150.032 165.015 146.408  1.00  0.00     0.052 C 
ENDBRANCH  25  26
ENDBRANCH  23  25
ENDBRANCH   5  23
TORSDOF 6
ENDMDL
MODEL 11
REMARK VINA RESULT:    -6.163      9.460     11.951
REMARK INTER + INTRA:          -9.981
REMARK INTER:                  -8.454
REMARK INTRA:                  -1.527
REMARK UNBOUND:                -1.656
REMARK SMILES COC(=O)C1=C(C)NC(C)=C(C(=O)OC(C)C)[C@@H]1c1cccc2nonc12
REMARK SMILES IDX 7 1 6 2 5 3 18 4 11 5 9 6 8 7 10 8 3 10 4 11 2 12 1 13 19 14
REMARK SMILES IDX 20 15 27 16 21 17 26 18 23 19 22 20 25 21 24 22 12 23 13 24
REMARK SMILES IDX 14 25 15 26 16 27 17 28
REMARK H PARENT 8 9
ROOT
ATOM      1  C   UNL     1     151.176 171.586 147.894  1.00  0.00     0.065 C 
ATOM      2  C   UNL     1     150.961 172.103 149.294  1.00  0.00     0.023 C 
ATOM      3  C   UNL     1     149.957 171.714 150.112  1.00  0.00     0.068 C 
ATOM      4  C   UNL     1     149.807 172.295 151.515  1.00  0.00     0.100 C 
ATOM      5  C   UNL     1     150.834 173.375 151.830  1.00  0.00     0.068 C 
ATOM      6  C   UNL     1     151.797 173.717 150.946  1.00  0.00     0.023 C 
ATOM      7  N   UNL     1     151.858 173.071 149.722  1.00  0.00    -0.362 N 
ATOM      8  C   UNL     1     152.815 174.807 151.163  1.00  0.00     0.065 C 
ATOM      9  H   UNL     1     152.624 173.311 149.097  1.00  0.00     0.166 HD
ENDROOT
BRANCH   3  10
ATOM     10  C   UNL     1     148.978 170.685 149.695  1.00  0.00     0.336 C 
ATOM     11  O   UNL     1     149.252 169.526 149.426  1.00  0.00    -0.246 OA
BRANCH  10  12
ATOM     12  O   UNL     1     147.735 171.235 149.659  1.00  0.00    -0.466 OA
ATOM     13  C   UNL     1     146.679 170.276 149.717  1.00  0.00     0.282 C 
ENDBRANCH  10  12
ENDBRANCH   3  10
BRANCH   4  14
ATOM     14  C   UNL     1     149.815 171.203 152.576  1.00  0.00    -0.004 A 
ATOM     15  C   UNL     1     150.777 170.155 152.545  1.00  0.00     0.007 A 
ATOM     16  C   UNL     1     148.907 171.090 153.659  1.00  0.00     0.139 A 
ATOM     17  C   UNL     1     150.839 169.103 153.495  1.00  0.00     0.003 A 
ATOM     18  N   UNL     1     147.875 171.877 153.994  1.00  0.00    -0.049 NA
ATOM     19  C   UNL     1     148.973 170.006 154.632  1.00  0.00     0.135 A 
ATOM     20  C   UNL     1     149.944 168.989 154.572  1.00  0.00     0.034 A 
ATOM     21  O   UNL     1     147.320 171.320 155.131  1.00  0.00    -0.243 OA
ATOM     22  N   UNL     1     147.987 170.172 155.521  1.00  0.00    -0.050 NA
ENDBRANCH   4  14
BRANCH   5  23
ATOM     23  C   UNL     1     150.665 174.023 153.148  1.00  0.00     0.337 C 
ATOM     24  O   UNL     1     149.749 174.791 153.401  1.00  0.00    -0.246 OA
BRANCH  23  25
ATOM     25  O   UNL     1     151.597 173.562 154.016  1.00  0.00    -0.460 OA
BRANCH  25  26
ATOM     26  C   UNL     1     151.155 173.352 155.368  1.00  0.00     0.170 C 
ATOM     27  C   UNL     1     151.798 172.059 155.854  1.00  0.00     0.052 C 
ATOM     28  C   UNL     1     151.585 174.530 156.233  1.00  0.00     0.052 C 
ENDBRANCH  25  26
ENDBRANCH  23  25
ENDBRANCH   5  23
TORSDOF 6
ENDMDL
MODEL 12
REMARK VINA RESULT:    -6.155      7.079     10.146
REMARK INTER + INTRA:          -9.970
REMARK INTER:                  -8.639
REMARK INTRA:                  -1.332
REMARK UNBOUND:                -1.656
REMARK SMILES COC(=O)C1=C(C)NC(C)=C(C(=O)OC(C)C)[C@@H]1c1cccc2nonc12
REMARK SMILES IDX 7 1 6 2 5 3 18 4 11 5 9 6 8 7 10 8 3 10 4 11 2 12 1 13 19 14
REMARK SMILES IDX 20 15 27 16 21 17 26 18 23 19 22 20 25 21 24 22 12 23 13 24
REMARK SMILES IDX 14 25 15 26 16 27 17 28
REMARK H PARENT 8 9
ROOT
ATOM      1  C   UNL     1     150.397 165.342 153.359  1.00  0.00     0.065 C 
ATOM      2  C   UNL     1     150.427 166.841 153.523  1.00  0.00     0.023 C 
ATOM      3  C   UNL     1     151.086 167.692 152.704  1.00  0.00     0.068 C 
ATOM      4  C   UNL     1     151.071 169.198 152.948  1.00  0.00     0.100 C 
ATOM      5  C   UNL     1     150.324 169.594 154.216  1.00  0.00     0.068 C 
ATOM      6  C   UNL     1     149.707 168.674 154.991  1.00  0.00     0.023 C 
ATOM      7  N   UNL     1     149.749 167.338 154.626  1.00  0.00    -0.362 N 
ATOM      8  C   UNL     1     148.995 168.980 156.283  1.00  0.00     0.065 C 
ATOM      9  H   UNL     1     149.233 166.675 155.199  1.00  0.00     0.166 HD
ENDROOT
BRANCH   3  10
ATOM     10  C   UNL     1     151.823 167.204 151.517  1.00  0.00     0.336 C 
ATOM     11  O   UNL     1     151.306 166.845 150.471  1.00  0.00    -0.246 OA
BRANCH  10  12
ATOM     12  O   UNL     1     153.156 167.218 151.778  1.00  0.00    -0.466 OA
ATOM     13  C   UNL     1     153.973 167.112 150.612  1.00  0.00     0.282 C 
ENDBRANCH  10  12
ENDBRANCH   3  10
BRANCH   4  14
ATOM     14  C   UNL     1     150.538 169.955 151.739  1.00  0.00    -0.004 A 
ATOM     15  C   UNL     1     151.412 170.678 150.881  1.00  0.00     0.007 A 
ATOM     16  C   UNL     1     149.178 170.044 151.347  1.00  0.00     0.139 A 
ATOM     17  C   UNL     1     150.984 171.411 149.742  1.00  0.00     0.003 A 
ATOM     18  N   UNL     1     148.089 169.509 151.916  1.00  0.00    -0.049 NA
ATOM     19  C   UNL     1     148.743 170.799 150.177  1.00  0.00     0.135 A 
ATOM     20  C   UNL     1     149.639 171.497 149.348  1.00  0.00     0.034 A 
ATOM     21  O   UNL     1     147.017 169.902 151.138  1.00  0.00    -0.243 OA
ATOM     22  N   UNL     1     147.413 170.695 150.075  1.00  0.00    -0.050 NA
ENDBRANCH   4  14
BRANCH   5  23
ATOM     23  C   UNL     1     150.364 171.037 154.532  1.00  0.00     0.337 C 
ATOM     24  O   UNL     1     149.423 171.790 154.332  1.00  0.00    -0.246 OA
BRANCH  23  25
ATOM     25  O   UNL     1     151.531 171.346 155.146  1.00  0.00    -0.460 OA
BRANCH  25  26
ATOM     26  C   UNL     1     151.441 172.252 156.260  1.00  0.00     0.170 C 
ATOM     27  C   UNL     1     151.521 171.412 157.528  1.00  0.00     0.052 C 
ATOM     28  C   UNL     1     152.590 173.251 156.197  1.00  0.00     0.052 C 
ENDBRANCH  25  26
ENDBRANCH  23  25
ENDBRANCH   5  23
TORSDOF 6
ENDMDL
MODEL 13
REMARK VINA RESULT:    -6.129      1.851      5.042
REMARK INTER + INTRA:          -9.935
REMARK INTER:                  -8.280
REMARK INTRA:                  -1.656
REMARK UNBOUND:                -1.656
REMARK SMILES COC(=O)C1=C(C)NC(C)=C(C(=O)OC(C)C)[C@@H]1c1cccc2nonc12
REMARK SMILES IDX 7 1 6 2 5 3 18 4 11 5 9 6 8 7 10 8 3 10 4 11 2 12 1 13 19 14
REMARK SMILES IDX 20 15 27 16 21 17 26 18 23 19 22 20 25 21 24 22 12 23 13 24
REMARK SMILES IDX 14 25 15 26 16 27 17 28
REMARK H PARENT 8 9
ROOT
ATOM      1  C   UNL     1     150.082 160.936 144.764  1.00  0.00     0.065 C 
ATOM      2  C   UNL     1     151.015 161.096 145.938  1.00  0.00     0.023 C 
ATOM      3  C   UNL     1     150.919 162.072 146.870  1.00  0.00     0.068 C 
ATOM      4  C   UNL     1     151.912 162.166 148.024  1.00  0.00     0.100 C 
ATOM      5  C   UNL     1     153.019 161.121 147.951  1.00  0.00     0.068 C 
ATOM      6  C   UNL     1     153.050 160.189 146.972  1.00  0.00     0.023 C 
ATOM      7  N   UNL     1     152.052 160.178 146.011  1.00  0.00    -0.362 N 
ATOM      8  C   UNL     1     154.135 159.158 146.804  1.00  0.00     0.065 C 
ATOM      9  H   UNL     1     152.072 159.434 145.318  1.00  0.00     0.166 HD
ENDROOT
BRANCH   3  10
ATOM     10  C   UNL     1     149.829 163.072 146.829  1.00  0.00     0.336 C 
ATOM     11  O   UNL     1     148.677 162.867 147.179  1.00  0.00    -0.246 OA
BRANCH  10  12
ATOM     12  O   UNL     1     150.312 164.245 146.342  1.00  0.00    -0.466 OA
ATOM     13  C   UNL     1     150.047 165.369 147.180  1.00  0.00     0.282 C 
ENDBRANCH  10  12
ENDBRANCH   3  10
BRANCH   4  14
ATOM     14  C   UNL     1     151.207 162.125 149.373  1.00  0.00    -0.004 A 
ATOM     15  C   UNL     1     150.497 160.967 149.796  1.00  0.00     0.007 A 
ATOM     16  C   UNL     1     151.158 163.182 150.317  1.00  0.00     0.139 A 
ATOM     17  C   UNL     1     149.812 160.862 151.035  1.00  0.00     0.003 A 
ATOM     18  N   UNL     1     151.693 164.409 150.255  1.00  0.00    -0.049 NA
ATOM     19  C   UNL     1     150.451 163.069 151.588  1.00  0.00     0.135 A 
ATOM     20  C   UNL     1     149.764 161.904 151.975  1.00  0.00     0.034 A 
ATOM     21  O   UNL     1     151.347 165.039 151.435  1.00  0.00    -0.243 OA
ATOM     22  N   UNL     1     150.583 164.224 152.251  1.00  0.00    -0.050 NA
ENDBRANCH   4  14
BRANCH   5  23
ATOM     23  C   UNL     1     154.049 161.237 149.004  1.00  0.00     0.337 C 
ATOM     24  O   UNL     1     154.156 160.441 149.924  1.00  0.00    -0.246 OA
BRANCH  23  25
ATOM     25  O   UNL     1     154.879 162.272 148.730  1.00  0.00    -0.460 OA
BRANCH  25  26
ATOM     26  C   UNL     1     156.253 161.933 148.474  1.00  0.00     0.170 C 
ATOM     27  C   UNL     1     156.425 161.870 146.961  1.00  0.00     0.052 C 
ATOM     28  C   UNL     1     157.161 162.996 149.081  1.00  0.00     0.052 C 
ENDBRANCH  25  26
ENDBRANCH  23  25
ENDBRANCH   5  23
TORSDOF 6
ENDMDL
MODEL 14
REMARK VINA RESULT:    -6.122      2.508      5.126
REMARK INTER + INTRA:          -9.926
REMARK INTER:                  -8.194
REMARK INTRA:                  -1.732
REMARK UNBOUND:                -1.656
REMARK SMILES COC(=O)C1=C(C)NC(C)=C(C(=O)OC(C)C)[C@@H]1c1cccc2nonc12
REMARK SMILES IDX 7 1 6 2 5 3 18 4 11 5 9 6 8 7 10 8 3 10 4 11 2 12 1 13 19 14
REMARK SMILES IDX 20 15 27 16 21 17 26 18 23 19 22 20 25 21 24 22 12 23 13 24
REMARK SMILES IDX 14 25 15 26 16 27 17 28
REMARK H PARENT 8 9
ROOT
ATOM      1  C   UNL     1     151.444 164.540 153.311  1.00  0.00     0.065 C 
ATOM      2  C   UNL     1     150.999 163.718 152.128  1.00  0.00     0.023 C 
ATOM      3  C   UNL     1     151.238 164.037 150.835  1.00  0.00     0.068 C 
ATOM      4  C   UNL     1     150.744 163.152 149.695  1.00  0.00     0.100 C 
ATOM      5  C   UNL     1     149.918 161.964 150.173  1.00  0.00     0.068 C 
ATOM      6  C   UNL     1     149.711 161.727 151.487  1.00  0.00     0.023 C 
ATOM      7  N   UNL     1     150.264 162.581 152.428  1.00  0.00    -0.362 N 
ATOM      8  C   UNL     1     148.866 160.606 152.034  1.00  0.00     0.065 C 
ATOM      9  H   UNL     1     150.136 162.349 153.410  1.00  0.00     0.166 HD
ENDROOT
BRANCH   3  10
ATOM     10  C   UNL     1     152.017 165.242 150.470  1.00  0.00     0.336 C 
ATOM     11  O   UNL     1     153.229 165.348 150.568  1.00  0.00    -0.246 OA
BRANCH  10  12
ATOM     12  O   UNL     1     151.171 166.203 150.015  1.00  0.00    -0.466 OA
ATOM     13  C   UNL     1     151.477 166.663 148.698  1.00  0.00     0.282 C 
ENDBRANCH  10  12
ENDBRANCH   3  10
BRANCH   4  14
ATOM     14  C   UNL     1     151.891 162.699 148.802  1.00  0.00    -0.004 A 
ATOM     15  C   UNL     1     151.984 163.132 147.450  1.00  0.00     0.007 A 
ATOM     16  C   UNL     1     152.942 161.825 149.178  1.00  0.00     0.139 A 
ATOM     17  C   UNL     1     153.020 162.744 146.559  1.00  0.00     0.003 A 
ATOM     18  N   UNL     1     153.170 161.218 150.351  1.00  0.00    -0.049 NA
ATOM     19  C   UNL     1     154.003 161.428 148.259  1.00  0.00     0.135 A 
ATOM     20  C   UNL     1     154.066 161.882 146.929  1.00  0.00     0.034 A 
ATOM     21  O   UNL     1     154.325 160.479 150.183  1.00  0.00    -0.243 OA
ATOM     22  N   UNL     1     154.835 160.601 148.903  1.00  0.00    -0.050 NA
ENDBRANCH   4  14
BRANCH   5  23
ATOM     23  C   UNL     1     149.348 161.133 149.091  1.00  0.00     0.337 C 
ATOM     24  O   UNL     1     148.453 161.518 148.355  1.00  0.00    -0.246 OA
BRANCH  23  25
ATOM     25  O   UNL     1     150.028 159.965 148.995  1.00  0.00    -0.460 OA
BRANCH  25  26
ATOM     26  C   UNL     1     149.922 159.272 147.739  1.00  0.00     0.170 C 
ATOM     27  C   UNL     1     151.340 159.072 147.218  1.00  0.00     0.052 C 
ATOM     28  C   UNL     1     149.229 157.932 147.954  1.00  0.00     0.052 C 
ENDBRANCH  25  26
ENDBRANCH  23  25
ENDBRANCH   5  23
TORSDOF 6
ENDMDL
MODEL 15
REMARK VINA RESULT:    -6.103      4.299      6.607
REMARK INTER + INTRA:          -9.900
REMARK INTER:                  -8.403
REMARK INTRA:                  -1.497
REMARK UNBOUND:                -1.656
REMARK SMILES COC(=O)C1=C(C)NC(C)=C(C(=O)OC(C)C)[C@@H]1c1cccc2nonc12
REMARK SMILES IDX 7 1 6 2 5 3 18 4 11 5 9 6 8 7 10 8 3 10 4 11 2 12 1 13 19 14
REMARK SMILES IDX 20 15 27 16 21 17 26 18 23 19 22 20 25 21 24 22 12 23 13 24
REMARK SMILES IDX 14 25 15 26 16 27 17 28
REMARK H PARENT 8 9
ROOT
ATOM      1  C   UNL     1     152.340 154.989 151.831  1.00  0.00     0.065 C 
ATOM      2  C   UNL     1     151.071 155.588 151.280  1.00  0.00     0.023 C 
ATOM      3  C   UNL     1     151.001 156.758 150.605  1.00  0.00     0.068 C 
ATOM      4  C   UNL     1     149.671 157.297 150.087  1.00  0.00     0.100 C 
ATOM      5  C   UNL     1     148.479 156.432 150.480  1.00  0.00     0.068 C 
ATOM      6  C   UNL     1     148.635 155.284 151.174  1.00  0.00     0.023 C 
ATOM      7  N   UNL     1     149.909 154.876 151.538  1.00  0.00    -0.362 N 
ATOM      8  C   UNL     1     147.506 154.404 151.643  1.00  0.00     0.065 C 
ATOM      9  H   UNL     1     150.001 153.981 152.013  1.00  0.00     0.166 HD
ENDROOT
BRANCH   3  10
ATOM     10  C   UNL     1     152.216 157.550 150.309  1.00  0.00     0.336 C 
ATOM     11  O   UNL     1     153.048 157.267 149.461  1.00  0.00    -0.246 OA
BRANCH  10  12
ATOM     12  O   UNL     1     152.256 158.634 151.128  1.00  0.00    -0.466 OA
ATOM     13  C   UNL     1     153.358 158.630 152.035  1.00  0.00     0.282 C 
ENDBRANCH  10  12
ENDBRANCH   3  10
BRANCH   4  14
ATOM     14  C   UNL     1     149.709 157.528 148.582  1.00  0.00    -0.004 A 
ATOM     15  C   UNL     1     149.895 156.446 147.677  1.00  0.00     0.007 A 
ATOM     16  C   UNL     1     149.586 158.781 147.931  1.00  0.00     0.139 A 
ATOM     17  C   UNL     1     149.948 156.589 146.266  1.00  0.00     0.003 A 
ATOM     18  N   UNL     1     149.415 160.003 148.454  1.00  0.00    -0.049 NA
ATOM     19  C   UNL     1     149.642 158.923 146.480  1.00  0.00     0.135 A 
ATOM     20  C   UNL     1     149.822 157.828 145.616  1.00  0.00     0.034 A 
ATOM     21  O   UNL     1     149.358 160.875 147.384  1.00  0.00    -0.243 OA
ATOM     22  N   UNL     1     149.501 160.218 146.175  1.00  0.00    -0.050 NA
ENDBRANCH   4  14
BRANCH   5  23
ATOM     23  C   UNL     1     147.165 156.970 150.072  1.00  0.00     0.337 C 
ATOM     24  O   UNL     1     146.724 158.035 150.478  1.00  0.00    -0.246 OA
BRANCH  23  25
ATOM     25  O   UNL     1     146.604 156.167 149.136  1.00  0.00    -0.460 OA
BRANCH  25  26
ATOM     26  C   UNL     1     145.299 156.552 148.670  1.00  0.00     0.170 C 
ATOM     27  C   UNL     1     145.229 156.197 147.190  1.00  0.00     0.052 C 
ATOM     28  C   UNL     1     144.234 155.801 149.460  1.00  0.00     0.052 C 
ENDBRANCH  25  26
ENDBRANCH  23  25
ENDBRANCH   5  23
TORSDOF 6
ENDMDL
MODEL 16
REMARK VINA RESULT:    -6.075      1.704      2.175
REMARK INTER + INTRA:          -9.862
REMARK INTER:                  -8.532
REMARK INTRA:                  -1.330
REMARK UNBOUND:                -1.656
REMARK SMILES COC(=O)C1=C(C)NC(C)=C(C(=O)OC(C)C)[C@@H]1c1cccc2nonc12
REMARK SMILES IDX 7 1 6 2 5 3 18 4 11 5 9 6 8 7 10 8 3 10 4 11 2 12 1 13 19 14
REMARK SMILES IDX 20 15 27 16 21 17 26 18 23 19 22 20 25 21 24 22 12 23 13 24
REMARK SMILES IDX 14 25 15 26 16 27 17 28
REMARK H PARENT 8 9
ROOT
ATOM      1  C   UNL     1     154.874 160.818 145.947  1.00  0.00     0.065 C 
ATOM      2  C   UNL     1     153.527 161.077 146.575  1.00  0.00     0.023 C 
ATOM      3  C   UNL     1     153.318 161.261 147.898  1.00  0.00     0.068 C 
ATOM      4  C   UNL     1     151.918 161.510 148.452  1.00  0.00     0.100 C 
ATOM      5  C   UNL     1     150.830 161.446 147.387  1.00  0.00     0.068 C 
ATOM      6  C   UNL     1     151.126 161.238 146.084  1.00  0.00     0.023 C 
ATOM      7  N   UNL     1     152.449 161.082 145.703  1.00  0.00    -0.362 N 
ATOM      8  C   UNL     1     150.106 161.111 144.983  1.00  0.00     0.065 C 
ATOM      9  H   UNL     1     152.645 160.979 144.711  1.00  0.00     0.166 HD
ENDROOT
BRANCH   3  10
ATOM     10  C   UNL     1     154.440 161.262 148.864  1.00  0.00     0.336 C 
ATOM     11  O   UNL     1     154.703 160.350 149.631  1.00  0.00    -0.246 OA
BRANCH  10  12
ATOM     12  O   UNL     1     155.122 162.432 148.760  1.00  0.00    -0.466 OA
ATOM     13  C   UNL     1     156.530 162.298 148.953  1.00  0.00     0.282 C 
ENDBRANCH  10  12
ENDBRANCH   3  10
BRANCH   4  14
ATOM     14  C   UNL     1     151.848 162.818 149.229  1.00  0.00    -0.004 A 
ATOM     15  C   UNL     1     151.630 164.056 148.565  1.00  0.00     0.007 A 
ATOM     16  C   UNL     1     152.000 162.960 150.632  1.00  0.00     0.139 A 
ATOM     17  C   UNL     1     151.561 165.312 149.224  1.00  0.00     0.003 A 
ATOM     18  N   UNL     1     152.229 162.026 151.565  1.00  0.00    -0.049 NA
ATOM     19  C   UNL     1     151.930 164.253 151.304  1.00  0.00     0.135 A 
ATOM     20  C   UNL     1     151.706 165.457 150.613  1.00  0.00     0.034 A 
ATOM     21  O   UNL     1     152.293 162.696 152.772  1.00  0.00    -0.243 OA
ATOM     22  N   UNL     1     152.115 164.060 152.615  1.00  0.00    -0.050 NA
ENDBRANCH   4  14
BRANCH   5  23
ATOM     23  C   UNL     1     149.453 161.594 147.900  1.00  0.00     0.337 C 
ATOM     24  O   UNL     1     148.709 162.502 147.562  1.00  0.00    -0.246 OA
BRANCH  23  25
ATOM     25  O   UNL     1     149.137 160.543 148.695  1.00  0.00    -0.460 OA
BRANCH  25  26
ATOM     26  C   UNL     1     148.087 160.765 149.652  1.00  0.00     0.170 C 
ATOM     27  C   UNL     1     147.368 159.436 149.845  1.00  0.00     0.052 C 
ATOM     28  C   UNL     1     148.690 161.253 150.965  1.00  0.00     0.052 C 
ENDBRANCH  25  26
ENDBRANCH  23  25
ENDBRANCH   5  23
TORSDOF 6
ENDMDL
MODEL 17
REMARK VINA RESULT:    -6.050      4.993      8.522
REMARK INTER + INTRA:          -9.828
REMARK INTER:                  -8.300
REMARK INTRA:                  -1.528
REMARK UNBOUND:                -1.656
REMARK SMILES COC(=O)C1=C(C)NC(C)=C(C(=O)OC(C)C)[C@@H]1c1cccc2nonc12
REMARK SMILES IDX 7 1 6 2 5 3 18 4 11 5 9 6 8 7 10 8 3 10 4 11 2 12 1 13 19 14
REMARK SMILES IDX 20 15 27 16 21 17 26 18 23 19 22 20 25 21 24 22 12 23 13 24
REMARK SMILES IDX 14 25 15 26 16 27 17 28
REMARK H PARENT 8 9
ROOT
ATOM      1  C   UNL     1     149.904 160.177 148.371  1.00  0.00     0.065 C 
ATOM      2  C   UNL     1     150.166 158.883 149.099  1.00  0.00     0.023 C 
ATOM      3  C   UNL     1     149.304 158.297 149.961  1.00  0.00     0.068 C 
ATOM      4  C   UNL     1     149.653 156.988 150.664  1.00  0.00     0.100 C 
ATOM      5  C   UNL     1     151.059 156.493 150.348  1.00  0.00     0.068 C 
ATOM      6  C   UNL     1     151.865 157.151 149.485  1.00  0.00     0.023 C 
ATOM      7  N   UNL     1     151.405 158.303 148.869  1.00  0.00    -0.362 N 
ATOM      8  C   UNL     1     153.281 156.753 149.162  1.00  0.00     0.065 C 
ATOM      9  H   UNL     1     152.013 158.748 148.186  1.00  0.00     0.166 HD
ENDROOT
BRANCH   3  10
ATOM     10  C   UNL     1     147.973 158.882 150.237  1.00  0.00     0.336 C 
ATOM     11  O   UNL     1     147.676 159.500 151.248  1.00  0.00    -0.246 OA
BRANCH  10  12
ATOM     12  O   UNL     1     147.142 158.622 149.194  1.00  0.00    -0.466 OA
ATOM     13  C   UNL     1     145.884 158.072 149.583  1.00  0.00     0.282 C 
ENDBRANCH  10  12
ENDBRANCH   3  10
BRANCH   4  14
ATOM     14  C   UNL     1     148.615 155.909 150.383  1.00  0.00    -0.004 A 
ATOM     15  C   UNL     1     147.832 155.352 151.432  1.00  0.00     0.007 A 
ATOM     16  C   UNL     1     148.325 155.345 149.115  1.00  0.00     0.139 A 
ATOM     17  C   UNL     1     146.854 154.341 151.244  1.00  0.00     0.003 A 
ATOM     18  N   UNL     1     148.866 155.611 147.918  1.00  0.00    -0.049 NA
ATOM     19  C   UNL     1     147.320 154.305 148.927  1.00  0.00     0.135 A 
ATOM     20  C   UNL     1     146.561 153.782 149.989  1.00  0.00     0.034 A 
ATOM     21  O   UNL     1     148.227 154.783 147.015  1.00  0.00    -0.243 OA
ATOM     22  N   UNL     1     147.284 153.978 147.630  1.00  0.00    -0.050 NA
ENDBRANCH   4  14
BRANCH   5  23
ATOM     23  C   UNL     1     151.463 155.274 151.079  1.00  0.00     0.337 C 
ATOM     24  O   UNL     1     151.567 154.180 150.547  1.00  0.00    -0.246 OA
BRANCH  23  25
ATOM     25  O   UNL     1     151.783 155.584 152.359  1.00  0.00    -0.460 OA
BRANCH  25  26
ATOM     26  C   UNL     1     153.145 155.337 152.750  1.00  0.00     0.170 C 
ATOM     27  C   UNL     1     153.837 156.691 152.844  1.00  0.00     0.052 C 
ATOM     28  C   UNL     1     153.166 154.621 154.095  1.00  0.00     0.052 C 
ENDBRANCH  25  26
ENDBRANCH  23  25
ENDBRANCH   5  23
TORSDOF 6
ENDMDL
MODEL 18
REMARK VINA RESULT:    -6.029      4.130      5.816
REMARK INTER + INTRA:          -9.800
REMARK INTER:                  -8.160
REMARK INTRA:                  -1.641
REMARK UNBOUND:                -1.656
REMARK SMILES COC(=O)C1=C(C)NC(C)=C(C(=O)OC(C)C)[C@@H]1c1cccc2nonc12
REMARK SMILES IDX 7 1 6 2 5 3 18 4 11 5 9 6 8 7 10 8 3 10 4 11 2 12 1 13 19 14
REMARK SMILES IDX 20 15 27 16 21 17 26 18 23 19 22 20 25 21 24 22 12 23 13 24
REMARK SMILES IDX 14 25 15 26 16 27 17 28
REMARK H PARENT 8 9
ROOT
ATOM      1  C   UNL     1     154.489 158.870 145.761  1.00  0.00     0.065 C 
ATOM      2  C   UNL     1     153.733 159.250 147.009  1.00  0.00     0.023 C 
ATOM      3  C   UNL     1     153.207 158.369 147.890  1.00  0.00     0.068 C 
ATOM      4  C   UNL     1     152.448 158.840 149.126  1.00  0.00     0.100 C 
ATOM      5  C   UNL     1     152.296 160.355 149.197  1.00  0.00     0.068 C 
ATOM      6  C   UNL     1     152.839 161.166 148.262  1.00  0.00     0.023 C 
ATOM      7  N   UNL     1     153.556 160.611 147.213  1.00  0.00    -0.362 N 
ATOM      8  C   UNL     1     152.690 162.665 148.234  1.00  0.00     0.065 C 
ATOM      9  H   UNL     1     153.997 161.247 146.554  1.00  0.00     0.166 HD
ENDROOT
BRANCH   3  10
ATOM     10  C   UNL     1     153.372 156.909 147.710  1.00  0.00     0.336 C 
ATOM     11  O   UNL     1     152.498 156.148 147.325  1.00  0.00    -0.246 OA
BRANCH  10  12
ATOM     12  O   UNL     1     154.641 156.555 148.041  1.00  0.00    -0.466 OA
ATOM     13  C   UNL     1     154.719 155.395 148.869  1.00  0.00     0.282 C 
ENDBRANCH  10  12
ENDBRANCH   3  10
BRANCH   4  14
ATOM     14  C   UNL     1     153.067 158.291 150.405  1.00  0.00    -0.004 A 
ATOM     15  C   UNL     1     152.364 157.364 151.223  1.00  0.00     0.007 A 
ATOM     16  C   UNL     1     154.344 158.629 150.922  1.00  0.00     0.139 A 
ATOM     17  C   UNL     1     152.875 156.818 152.429  1.00  0.00     0.003 A 
ATOM     18  N   UNL     1     155.268 159.468 150.435  1.00  0.00    -0.049 NA
ATOM     19  C   UNL     1     154.865 158.067 152.163  1.00  0.00     0.135 A 
ATOM     20  C   UNL     1     154.141 157.146 152.942  1.00  0.00     0.034 A 
ATOM     21  O   UNL     1     156.326 159.432 151.322  1.00  0.00    -0.243 OA
ATOM     22  N   UNL     1     156.081 158.579 152.384  1.00  0.00    -0.050 NA
ENDBRANCH   4  14
BRANCH   5  23
ATOM     23  C   UNL     1     151.490 160.843 150.335  1.00  0.00     0.337 C 
ATOM     24  O   UNL     1     151.968 161.460 151.275  1.00  0.00    -0.246 OA
BRANCH  23  25
ATOM     25  O   UNL     1     150.177 160.589 150.118  1.00  0.00    -0.460 OA
BRANCH  25  26
ATOM     26  C   UNL     1     149.541 159.697 151.051  1.00  0.00     0.170 C 
ATOM     27  C   UNL     1     148.575 160.533 151.881  1.00  0.00     0.052 C 
ATOM     28  C   UNL     1     148.799 158.607 150.287  1.00  0.00     0.052 C 
ENDBRANCH  25  26
ENDBRANCH  23  25
ENDBRANCH   5  23
TORSDOF 6
ENDMDL
MODEL 19
REMARK VINA RESULT:    -6.029      2.207      5.397
REMARK INTER + INTRA:          -9.800
REMARK INTER:                  -8.278
REMARK INTRA:                  -1.523
REMARK UNBOUND:                -1.656
REMARK SMILES COC(=O)C1=C(C)NC(C)=C(C(=O)OC(C)C)[C@@H]1c1cccc2nonc12
REMARK SMILES IDX 7 1 6 2 5 3 18 4 11 5 9 6 8 7 10 8 3 10 4 11 2 12 1 13 19 14
REMARK SMILES IDX 20 15 27 16 21 17 26 18 23 19 22 20 25 21 24 22 12 23 13 24
REMARK SMILES IDX 14 25 15 26 16 27 17 28
REMARK H PARENT 8 9
ROOT
ATOM      1  C   UNL     1     150.205 158.328 150.535  1.00  0.00     0.065 C 
ATOM      2  C   UNL     1     151.214 159.326 150.026  1.00  0.00     0.023 C 
ATOM      3  C   UNL     1     150.903 160.475 149.384  1.00  0.00     0.068 C 
ATOM      4  C   UNL     1     151.989 161.427 148.892  1.00  0.00     0.100 C 
ATOM      5  C   UNL     1     153.400 160.904 149.133  1.00  0.00     0.068 C 
ATOM      6  C   UNL     1     153.623 159.733 149.769  1.00  0.00     0.023 C 
ATOM      7  N   UNL     1     152.545 158.986 150.217  1.00  0.00    -0.362 N 
ATOM      8  C   UNL     1     154.983 159.126 149.998  1.00  0.00     0.065 C 
ATOM      9  H   UNL     1     152.743 158.135 150.737  1.00  0.00     0.166 HD
ENDROOT
BRANCH   3  10
ATOM     10  C   UNL     1     149.496 160.875 149.157  1.00  0.00     0.336 C 
ATOM     11  O   UNL     1     148.726 161.249 150.028  1.00  0.00    -0.246 OA
BRANCH  10  12
ATOM     12  O   UNL     1     149.202 160.759 147.836  1.00  0.00    -0.466 OA
ATOM     13  C   UNL     1     148.501 161.881 147.301  1.00  0.00     0.282 C 
ENDBRANCH  10  12
ENDBRANCH   3  10
BRANCH   4  14
ATOM     14  C   UNL     1     151.814 162.823 149.475  1.00  0.00    -0.004 A 
ATOM     15  C   UNL     1     151.489 163.931 148.644  1.00  0.00     0.007 A 
ATOM     16  C   UNL     1     151.962 163.178 150.840  1.00  0.00     0.139 A 
ATOM     17  C   UNL     1     151.319 165.258 149.117  1.00  0.00     0.003 A 
ATOM     18  N   UNL     1     152.274 162.411 151.893  1.00  0.00    -0.049 NA
ATOM     19  C   UNL     1     151.788 164.544 151.321  1.00  0.00     0.135 A 
ATOM     20  C   UNL     1     151.459 165.614 150.469  1.00  0.00     0.034 A 
ATOM     21  O   UNL     1     152.288 163.251 152.990  1.00  0.00    -0.243 OA
ATOM     22  N   UNL     1     151.995 164.558 152.643  1.00  0.00    -0.050 NA
ENDBRANCH   4  14
BRANCH   5  23
ATOM     23  C   UNL     1     154.477 161.759 148.591  1.00  0.00     0.337 C 
ATOM     24  O   UNL     1     155.335 162.276 149.290  1.00  0.00    -0.246 OA
BRANCH  23  25
ATOM     25  O   UNL     1     154.412 161.787 147.238  1.00  0.00    -0.460 OA
BRANCH  25  26
ATOM     26  C   UNL     1     154.805 160.581 146.559  1.00  0.00     0.170 C 
ATOM     27  C   UNL     1     154.044 160.541 145.240  1.00  0.00     0.052 C 
ATOM     28  C   UNL     1     156.310 160.601 146.318  1.00  0.00     0.052 C 
ENDBRANCH  25  26
ENDBRANCH  23  25
ENDBRANCH   5  23
TORSDOF 6
ENDMDL
MODEL 20
REMARK VINA RESULT:    -5.985      3.898      6.410
REMARK INTER + INTRA:          -9.741
REMARK INTER:                  -7.904
REMARK INTRA:                  -1.837
REMARK UNBOUND:                -1.656
REMARK SMILES COC(=O)C1=C(C)NC(C)=C(C(=O)OC(C)C)[C@@H]1c1cccc2nonc12
REMARK SMILES IDX 7 1 6 2 5 3 18 4 11 5 9 6 8 7 10 8 3 10 4 11 2 12 1 13 19 14
REMARK SMILES IDX 20 15 27 16 21 17 26 18 23 19 22 20 25 21 24 22 12 23 13 24
REMARK SMILES IDX 14 25 15 26 16 27 17 28
REMARK H PARENT 8 9
ROOT
ATOM      1  C   UNL     1     145.645 158.226 149.582  1.00  0.00     0.065 C 
ATOM      2  C   UNL     1     147.085 157.827 149.781  1.00  0.00     0.023 C 
ATOM      3  C   UNL     1     148.149 158.551 149.364  1.00  0.00     0.068 C 
ATOM      4  C   UNL     1     149.577 158.069 149.600  1.00  0.00     0.100 C 
ATOM      5  C   UNL     1     149.647 156.698 150.262  1.00  0.00     0.068 C 
ATOM      6  C   UNL     1     148.531 156.033 150.633  1.00  0.00     0.023 C 
ATOM      7  N   UNL     1     147.290 156.608 150.410  1.00  0.00    -0.362 N 
ATOM      8  C   UNL     1     148.516 154.656 151.244  1.00  0.00     0.065 C 
ATOM      9  H   UNL     1     146.470 156.109 150.747  1.00  0.00     0.166 HD
ENDROOT
BRANCH   3  10
ATOM     10  C   UNL     1     147.976 159.856 148.687  1.00  0.00     0.336 C 
ATOM     11  O   UNL     1     147.722 160.908 149.252  1.00  0.00    -0.246 OA
BRANCH  10  12
ATOM     12  O   UNL     1     148.141 159.694 147.348  1.00  0.00    -0.466 OA
ATOM     13  C   UNL     1     149.181 160.501 146.795  1.00  0.00     0.282 C 
ENDBRANCH  10  12
ENDBRANCH   3  10
BRANCH   4  14
ATOM     14  C   UNL     1     150.392 159.095 150.376  1.00  0.00    -0.004 A 
ATOM     15  C   UNL     1     149.982 159.536 151.665  1.00  0.00     0.007 A 
ATOM     16  C   UNL     1     151.585 159.718 149.931  1.00  0.00     0.139 A 
ATOM     17  C   UNL     1     150.687 160.493 152.441  1.00  0.00     0.003 A 
ATOM     18  N   UNL     1     152.252 159.562 148.779  1.00  0.00    -0.049 NA
ATOM     19  C   UNL     1     152.306 160.702 150.731  1.00  0.00     0.135 A 
ATOM     20  C   UNL     1     151.872 161.109 152.006  1.00  0.00     0.034 A 
ATOM     21  O   UNL     1     153.346 160.402 148.851  1.00  0.00    -0.243 OA
ATOM     22  N   UNL     1     153.380 161.105 150.042  1.00  0.00    -0.050 NA
ENDBRANCH   4  14
BRANCH   5  23
ATOM     23  C   UNL     1     151.014 156.161 150.426  1.00  0.00     0.337 C 
ATOM     24  O   UNL     1     151.747 155.902 149.484  1.00  0.00    -0.246 OA
BRANCH  23  25
ATOM     25  O   UNL     1     151.336 156.103 151.741  1.00  0.00    -0.460 OA
BRANCH  25  26
ATOM     26  C   UNL     1     152.740 156.098 152.050  1.00  0.00     0.170 C 
ATOM     27  C   UNL     1     153.108 157.512 152.483  1.00  0.00     0.052 C 
ATOM     28  C   UNL     1     153.012 155.100 153.169  1.00  0.00     0.052 C 
ENDBRANCH  25  26
ENDBRANCH  23  25
ENDBRANCH   5  23
TORSDOF 6
ENDMDL
