MODEL 1
REMARK VINA RESULT:    -9.149      0.000      0.000
REMARK INTER + INTRA:         -11.014
REMARK INTER:                 -10.754
REMARK INTRA:                  -0.260
REMARK UNBOUND:                -0.260
REMARK SMILES CN1C(N)=N[C@](C)(c2cc(NC(=O)c3ccc(F)cn3)ccc2F)CS1(=O)=O
REMARK SMILES IDX 8 1 9 2 10 3 21 4 22 5 23 6 24 7 6 8 25 9 5 10 26 11 3 12
REMARK SMILES IDX 27 13 2 14 28 15 4 16 7 17 1 18 11 21 12 22 13 23 14 25
REMARK SMILES IDX 20 26 15 27 19 28 16 29 17 30 18 31
REMARK H PARENT 4 19 4 20 11 24
ROOT
ATOM      1  C   UNL     1      24.727  12.504  21.046  1.00  0.00     0.018 A 
ATOM      2  C   UNL     1      24.028  12.273  22.230  1.00  0.00     0.035 A 
ATOM      3  C   UNL     1      23.375  11.087  22.480  1.00  0.00     0.042 A 
ATOM      4  C   UNL     1      23.375  10.071  21.532  1.00  0.00     0.029 A 
ATOM      5  C   UNL     1      24.066  10.282  20.353  1.00  0.00     0.042 A 
ATOM      6  C   UNL     1      24.743  11.465  20.129  1.00  0.00     0.129 A 
ATOM      7  F   UNL     1      25.439  11.635  18.975  1.00  0.00    -0.207 F 
ENDROOT
BRANCH   1   8
ATOM      8  C   UNL     1      25.440  13.825  20.801  1.00  0.00     0.105 C 
ATOM      9  C   UNL     1      26.923  13.711  20.527  1.00  0.00     0.195 C 
ATOM     10  N   UNL     1      25.200  14.786  21.876  1.00  0.00    -0.240 NA
ATOM     11  S   UNL     1      27.773  13.054  21.941  1.00  0.00     0.239 S 
ATOM     12  C   UNL     1      25.874  14.751  22.984  1.00  0.00     0.205 C 
ATOM     13  O   UNL     1      29.128  13.572  21.887  1.00  0.00    -0.206 OA
ATOM     14  N   UNL     1      26.961  13.880  23.216  1.00  0.00    -0.243 N 
ATOM     15  O   UNL     1      27.446  11.680  22.162  1.00  0.00    -0.206 OA
ATOM     16  N   UNL     1      25.600  15.588  24.032  1.00  0.00    -0.369 N 
ATOM     17  C   UNL     1      24.811  14.508  19.583  1.00  0.00     0.044 C 
ATOM     18  C   UNL     1      27.637  13.766  24.523  1.00  0.00     0.167 C 
ATOM     19  H   UNL     1      24.858  16.233  23.966  1.00  0.00     0.159 HD
ATOM     20  H   UNL     1      26.144  15.546  24.852  1.00  0.00     0.159 HD
ENDBRANCH   1   8
BRANCH   3  21
ATOM     21  N   UNL     1      22.708  10.984  23.708  1.00  0.00    -0.321 N 
ATOM     22  C   UNL     1      23.206  11.221  24.976  1.00  0.00     0.274 C 
ATOM     23  O   UNL     1      24.381  11.441  25.242  1.00  0.00    -0.267 OA
ATOM     24  H   UNL     1      21.764  10.709  23.661  1.00  0.00     0.170 HD
BRANCH  22  25
ATOM     25  C   UNL     1      22.196  11.233  26.062  1.00  0.00     0.128 A 
ATOM     26  N   UNL     1      22.623  11.630  27.265  1.00  0.00    -0.248 NA
ATOM     27  C   UNL     1      20.891  10.855  25.795  1.00  0.00     0.037 A 
ATOM     28  C   UNL     1      21.726  11.644  28.265  1.00  0.00     0.151 A 
ATOM     29  C   UNL     1      19.989  10.887  26.844  1.00  0.00     0.043 A 
ATOM     30  C   UNL     1      20.408  11.282  28.100  1.00  0.00     0.141 A 
ATOM     31  F   UNL     1      19.567  11.337  29.146  1.00  0.00    -0.205 F 
ENDBRANCH  22  25
ENDBRANCH   3  21
TORSDOF 3
ENDMDL
MODEL 2
REMARK VINA RESULT:    -8.553      2.408      3.794
REMARK INTER + INTRA:         -10.313
REMARK INTER:                 -10.037
REMARK INTRA:                  -0.276
REMARK UNBOUND:                -0.260
REMARK SMILES CN1C(N)=N[C@](C)(c2cc(NC(=O)c3ccc(F)cn3)ccc2F)CS1(=O)=O
REMARK SMILES IDX 8 1 9 2 10 3 21 4 22 5 23 6 24 7 6 8 25 9 5 10 26 11 3 12
REMARK SMILES IDX 27 13 2 14 28 15 4 16 7 17 1 18 11 21 12 22 13 23 14 25
REMARK SMILES IDX 20 26 15 27 19 28 16 29 17 30 18 31
REMARK H PARENT 4 19 4 20 11 24
ROOT
ATOM      1  C   UNL     1      26.901  13.071  22.931  1.00  0.00     0.018 A 
ATOM      2  C   UNL     1      25.822  12.702  23.734  1.00  0.00     0.035 A 
ATOM      3  C   UNL     1      25.641  13.208  25.001  1.00  0.00     0.042 A 
ATOM      4  C   UNL     1      26.556  14.104  25.539  1.00  0.00     0.029 A 
ATOM      5  C   UNL     1      27.631  14.485  24.754  1.00  0.00     0.042 A 
ATOM      6  C   UNL     1      27.783  13.993  23.473  1.00  0.00     0.129 A 
ATOM      7  F   UNL     1      28.831  14.405  22.714  1.00  0.00    -0.207 F 
ENDROOT
BRANCH   1   8
ATOM      8  C   UNL     1      27.072  12.496  21.534  1.00  0.00     0.105 C 
ATOM      9  C   UNL     1      27.140  13.521  20.423  1.00  0.00     0.195 C 
ATOM     10  N   UNL     1      26.059  11.488  21.227  1.00  0.00    -0.240 NA
ATOM     11  S   UNL     1      25.611  14.415  20.302  1.00  0.00     0.239 S 
ATOM     12  C   UNL     1      24.869  11.818  20.829  1.00  0.00     0.205 C 
ATOM     13  O   UNL     1      25.490  14.843  18.920  1.00  0.00    -0.206 OA
ATOM     14  N   UNL     1      24.475  13.144  20.543  1.00  0.00    -0.243 N 
ATOM     15  O   UNL     1      25.410  15.271  21.429  1.00  0.00    -0.206 OA
ATOM     16  N   UNL     1      23.884  10.890  20.623  1.00  0.00    -0.369 N 
ATOM     17  C   UNL     1      28.377  11.696  21.486  1.00  0.00     0.044 C 
ATOM     18  C   UNL     1      23.086  13.518  20.212  1.00  0.00     0.167 C 
ATOM     19  H   UNL     1      24.062   9.937  20.795  1.00  0.00     0.159 HD
ATOM     20  H   UNL     1      22.997  11.175  20.303  1.00  0.00     0.159 HD
ENDBRANCH   1   8
BRANCH   3  21
ATOM     21  N   UNL     1      24.517  12.753  25.704  1.00  0.00    -0.321 N 
ATOM     22  C   UNL     1      23.186  12.827  25.332  1.00  0.00     0.274 C 
ATOM     23  O   UNL     1      22.759  13.434  24.359  1.00  0.00    -0.267 OA
ATOM     24  H   UNL     1      24.698  12.326  26.572  1.00  0.00     0.170 HD
BRANCH  22  25
ATOM     25  C   UNL     1      22.246  12.066  26.191  1.00  0.00     0.128 A 
ATOM     26  N   UNL     1      22.604  11.913  27.471  1.00  0.00    -0.248 NA
ATOM     27  C   UNL     1      21.070  11.570  25.658  1.00  0.00     0.037 A 
ATOM     28  C   UNL     1      21.770  11.224  28.267  1.00  0.00     0.151 A 
ATOM     29  C   UNL     1      20.229  10.870  26.505  1.00  0.00     0.043 A 
ATOM     30  C   UNL     1      20.582  10.687  27.828  1.00  0.00     0.141 A 
ATOM     31  F   UNL     1      19.793  10.022  28.689  1.00  0.00    -0.205 F 
ENDBRANCH  22  25
ENDBRANCH   3  21
TORSDOF 3
ENDMDL
MODEL 3
REMARK VINA RESULT:    -8.542      1.352      1.617
REMARK INTER + INTRA:         -10.300
REMARK INTER:                  -9.948
REMARK INTRA:                  -0.352
REMARK UNBOUND:                -0.260
REMARK SMILES CN1C(N)=N[C@](C)(c2cc(NC(=O)c3ccc(F)cn3)ccc2F)CS1(=O)=O
REMARK SMILES IDX 8 1 9 2 10 3 21 4 22 5 23 6 24 7 6 8 25 9 5 10 26 11 3 12
REMARK SMILES IDX 27 13 2 14 28 15 4 16 7 17 1 18 11 21 12 22 13 23 14 25
REMARK SMILES IDX 20 26 15 27 19 28 16 29 17 30 18 31
REMARK H PARENT 4 19 4 20 11 24
ROOT
ATOM      1  C   UNL     1      24.700  12.490  21.447  1.00  0.00     0.018 A 
ATOM      2  C   UNL     1      24.249  12.598  22.761  1.00  0.00     0.035 A 
ATOM      3  C   UNL     1      23.424  11.658  23.336  1.00  0.00     0.042 A 
ATOM      4  C   UNL     1      22.988  10.561  22.603  1.00  0.00     0.029 A 
ATOM      5  C   UNL     1      23.428  10.436  21.297  1.00  0.00     0.042 A 
ATOM      6  C   UNL     1      24.282  11.370  20.744  1.00  0.00     0.129 A 
ATOM      7  F   UNL     1      24.723  11.208  19.470  1.00  0.00    -0.207 F 
ENDROOT
BRANCH   1   8
ATOM      8  C   UNL     1      25.613  13.544  20.841  1.00  0.00     0.105 C 
ATOM      9  C   UNL     1      26.933  13.023  20.316  1.00  0.00     0.195 C 
ATOM     10  N   UNL     1      25.843  14.661  21.755  1.00  0.00    -0.240 NA
ATOM     11  S   UNL     1      27.913  12.355  21.636  1.00  0.00     0.239 S 
ATOM     12  C   UNL     1      26.725  14.596  22.703  1.00  0.00     0.205 C 
ATOM     13  O   UNL     1      29.301  12.500  21.235  1.00  0.00    -0.206 OA
ATOM     14  N   UNL     1      27.616  13.513  22.875  1.00  0.00    -0.243 N 
ATOM     15  O   UNL     1      27.349  11.148  22.154  1.00  0.00    -0.206 OA
ATOM     16  N   UNL     1      26.889  15.600  23.620  1.00  0.00    -0.369 N 
ATOM     17  C   UNL     1      24.892  14.206  19.664  1.00  0.00     0.044 C 
ATOM     18  C   UNL     1      28.528  13.396  24.030  1.00  0.00     0.167 C 
ATOM     19  H   UNL     1      26.314  16.398  23.583  1.00  0.00     0.159 HD
ATOM     20  H   UNL     1      27.581  15.524  24.316  1.00  0.00     0.159 HD
ENDBRANCH   1   8
BRANCH   3  21
ATOM     21  N   UNL     1      23.041  11.886  24.664  1.00  0.00    -0.321 N 
ATOM     22  C   UNL     1      22.025  12.698  25.136  1.00  0.00     0.274 C 
ATOM     23  O   UNL     1      21.362  13.466  24.451  1.00  0.00    -0.267 OA
ATOM     24  H   UNL     1      23.562  11.408  25.350  1.00  0.00     0.170 HD
BRANCH  22  25
ATOM     25  C   UNL     1      21.730  12.567  26.583  1.00  0.00     0.128 A 
ATOM     26  N   UNL     1      20.533  12.062  26.901  1.00  0.00    -0.248 NA
ATOM     27  C   UNL     1      22.675  12.951  27.519  1.00  0.00     0.037 A 
ATOM     28  C   UNL     1      20.242  11.938  28.206  1.00  0.00     0.151 A 
ATOM     29  C   UNL     1      22.348  12.805  28.855  1.00  0.00     0.043 A 
ATOM     30  C   UNL     1      21.113  12.296  29.210  1.00  0.00     0.141 A 
ATOM     31  F   UNL     1      20.755  12.128  30.494  1.00  0.00    -0.205 F 
ENDBRANCH  22  25
ENDBRANCH   3  21
TORSDOF 3
ENDMDL
MODEL 4
REMARK VINA RESULT:    -8.540      1.104      1.204
REMARK INTER + INTRA:         -10.298
REMARK INTER:                  -9.856
REMARK INTRA:                  -0.441
REMARK UNBOUND:                -0.260
REMARK SMILES CN1C(N)=N[C@](C)(c2cc(NC(=O)c3ccc(F)cn3)ccc2F)CS1(=O)=O
REMARK SMILES IDX 8 1 9 2 10 3 21 4 22 5 23 6 24 7 6 8 25 9 5 10 26 11 3 12
REMARK SMILES IDX 27 13 2 14 28 15 4 16 7 17 1 18 11 21 12 22 13 23 14 25
REMARK SMILES IDX 20 26 15 27 19 28 16 29 17 30 18 31
REMARK H PARENT 4 19 4 20 11 24
ROOT
ATOM      1  C   UNL     1      25.284  13.608  21.433  1.00  0.00     0.018 A 
ATOM      2  C   UNL     1      24.519  13.422  22.583  1.00  0.00     0.035 A 
ATOM      3  C   UNL     1      23.601  12.403  22.700  1.00  0.00     0.042 A 
ATOM      4  C   UNL     1      23.387  11.525  21.645  1.00  0.00     0.029 A 
ATOM      5  C   UNL     1      24.140  11.692  20.496  1.00  0.00     0.042 A 
ATOM      6  C   UNL     1      25.081  12.699  20.406  1.00  0.00     0.129 A 
ATOM      7  F   UNL     1      25.828  12.824  19.278  1.00  0.00    -0.207 F 
ENDROOT
BRANCH   1   8
ATOM      8  C   UNL     1      26.294  14.741  21.335  1.00  0.00     0.105 C 
ATOM      9  C   UNL     1      27.696  14.320  20.955  1.00  0.00     0.195 C 
ATOM     10  N   UNL     1      26.326  15.553  22.551  1.00  0.00    -0.240 NA
ATOM     11  S   UNL     1      28.394  13.269  22.203  1.00  0.00     0.239 S 
ATOM     12  C   UNL     1      26.999  15.187  23.598  1.00  0.00     0.205 C 
ATOM     13  O   UNL     1      29.833  13.450  22.138  1.00  0.00    -0.206 OA
ATOM     14  N   UNL     1      27.845  14.056  23.632  1.00  0.00    -0.243 N 
ATOM     15  O   UNL     1      27.746  11.995  22.243  1.00  0.00    -0.206 OA
ATOM     16  N   UNL     1      26.966  15.891  24.771  1.00  0.00    -0.369 N 
ATOM     17  C   UNL     1      25.820  15.736  20.272  1.00  0.00     0.044 C 
ATOM     18  C   UNL     1      28.505  13.582  24.864  1.00  0.00     0.167 C 
ATOM     19  H   UNL     1      26.405  16.697  24.846  1.00  0.00     0.159 HD
ATOM     20  H   UNL     1      27.505  15.594  25.540  1.00  0.00     0.159 HD
ENDBRANCH   1   8
BRANCH   3  21
ATOM     21  N   UNL     1      22.896  12.329  23.908  1.00  0.00    -0.321 N 
ATOM     22  C   UNL     1      23.226  11.623  25.051  1.00  0.00     0.274 C 
ATOM     23  O   UNL     1      24.150  10.825  25.144  1.00  0.00    -0.267 OA
ATOM     24  H   UNL     1      22.059  12.846  23.949  1.00  0.00     0.170 HD
BRANCH  22  25
ATOM     25  C   UNL     1      22.387  11.914  26.239  1.00  0.00     0.128 A 
ATOM     26  N   UNL     1      23.033  12.339  27.330  1.00  0.00    -0.248 NA
ATOM     27  C   UNL     1      21.014  11.750  26.173  1.00  0.00     0.037 A 
ATOM     28  C   UNL     1      22.295  12.605  28.421  1.00  0.00     0.151 A 
ATOM     29  C   UNL     1      20.281  12.037  27.311  1.00  0.00     0.043 A 
ATOM     30  C   UNL     1      20.925  12.467  28.455  1.00  0.00     0.141 A 
ATOM     31  F   UNL     1      20.254  12.767  29.580  1.00  0.00    -0.205 F 
ENDBRANCH  22  25
ENDBRANCH   3  21
TORSDOF 3
ENDMDL
MODEL 5
REMARK VINA RESULT:    -8.338      3.562      8.526
REMARK INTER + INTRA:         -10.060
REMARK INTER:                 -10.448
REMARK INTRA:                   0.388
REMARK UNBOUND:                -0.260
REMARK SMILES CN1C(N)=N[C@](C)(c2cc(NC(=O)c3ccc(F)cn3)ccc2F)CS1(=O)=O
REMARK SMILES IDX 8 1 9 2 10 3 21 4 22 5 23 6 24 7 6 8 25 9 5 10 26 11 3 12
REMARK SMILES IDX 27 13 2 14 28 15 4 16 7 17 1 18 11 21 12 22 13 23 14 25
REMARK SMILES IDX 20 26 15 27 19 28 16 29 17 30 18 31
REMARK H PARENT 4 19 4 20 11 24
ROOT
ATOM      1  C   UNL     1      20.973  12.096  27.367  1.00  0.00     0.018 A 
ATOM      2  C   UNL     1      21.594  12.010  26.122  1.00  0.00     0.035 A 
ATOM      3  C   UNL     1      22.757  12.687  25.831  1.00  0.00     0.042 A 
ATOM      4  C   UNL     1      23.347  13.511  26.781  1.00  0.00     0.029 A 
ATOM      5  C   UNL     1      22.747  13.606  28.023  1.00  0.00     0.042 A 
ATOM      6  C   UNL     1      21.598  12.896  28.312  1.00  0.00     0.129 A 
ATOM      7  F   UNL     1      21.044  12.983  29.549  1.00  0.00    -0.207 F 
ENDROOT
BRANCH   1   8
ATOM      8  C   UNL     1      19.690  11.334  27.659  1.00  0.00     0.105 C 
ATOM      9  C   UNL     1      18.908  10.904  26.438  1.00  0.00     0.195 C 
ATOM     10  N   UNL     1      18.820  12.058  28.584  1.00  0.00    -0.240 NA
ATOM     11  S   UNL     1      18.334  12.319  25.532  1.00  0.00     0.239 S 
ATOM     12  C   UNL     1      18.035  13.008  28.179  1.00  0.00     0.205 C 
ATOM     13  O   UNL     1      17.125  11.906  24.842  1.00  0.00    -0.206 OA
ATOM     14  N   UNL     1      17.856  13.355  26.821  1.00  0.00    -0.243 N 
ATOM     15  O   UNL     1      19.414  13.021  24.911  1.00  0.00    -0.206 OA
ATOM     16  N   UNL     1      17.282  13.753  29.046  1.00  0.00    -0.369 N 
ATOM     17  C   UNL     1      20.037  10.062  28.439  1.00  0.00     0.044 C 
ATOM     18  C   UNL     1      17.058  14.518  26.386  1.00  0.00     0.167 C 
ATOM     19  H   UNL     1      17.337  13.586  30.015  1.00  0.00     0.159 HD
ATOM     20  H   UNL     1      16.683  14.455  28.701  1.00  0.00     0.159 HD
ENDBRANCH   1   8
BRANCH   3  21
ATOM     21  N   UNL     1      23.276  12.517  24.541  1.00  0.00    -0.321 N 
ATOM     22  C   UNL     1      23.130  13.344  23.442  1.00  0.00     0.274 C 
ATOM     23  O   UNL     1      22.396  14.322  23.389  1.00  0.00    -0.267 OA
ATOM     24  H   UNL     1      23.814  11.704  24.399  1.00  0.00     0.170 HD
BRANCH  22  25
ATOM     25  C   UNL     1      23.976  13.000  22.273  1.00  0.00     0.128 A 
ATOM     26  N   UNL     1      25.243  12.662  22.537  1.00  0.00    -0.248 NA
ATOM     27  C   UNL     1      23.438  13.029  20.998  1.00  0.00     0.037 A 
ATOM     28  C   UNL     1      26.029  12.350  21.494  1.00  0.00     0.151 A 
ATOM     29  C   UNL     1      24.271  12.697  19.945  1.00  0.00     0.043 A 
ATOM     30  C   UNL     1      25.588  12.356  20.190  1.00  0.00     0.141 A 
ATOM     31  F   UNL     1      26.431  12.018  19.200  1.00  0.00    -0.205 F 
ENDBRANCH  22  25
ENDBRANCH   3  21
TORSDOF 3
ENDMDL
MODEL 6
REMARK VINA RESULT:    -8.253      3.475      8.432
REMARK INTER + INTRA:          -9.960
REMARK INTER:                 -10.455
REMARK INTRA:                   0.495
REMARK UNBOUND:                -0.260
REMARK SMILES CN1C(N)=N[C@](C)(c2cc(NC(=O)c3ccc(F)cn3)ccc2F)CS1(=O)=O
REMARK SMILES IDX 8 1 9 2 10 3 21 4 22 5 23 6 24 7 6 8 25 9 5 10 26 11 3 12
REMARK SMILES IDX 27 13 2 14 28 15 4 16 7 17 1 18 11 21 12 22 13 23 14 25
REMARK SMILES IDX 20 26 15 27 19 28 16 29 17 30 18 31
REMARK H PARENT 4 19 4 20 11 24
ROOT
ATOM      1  C   UNL     1      20.941  12.080  27.399  1.00  0.00     0.018 A 
ATOM      2  C   UNL     1      21.598  11.943  26.177  1.00  0.00     0.035 A 
ATOM      3  C   UNL     1      22.763  12.617  25.888  1.00  0.00     0.042 A 
ATOM      4  C   UNL     1      23.320  13.489  26.816  1.00  0.00     0.029 A 
ATOM      5  C   UNL     1      22.683  13.634  28.036  1.00  0.00     0.042 A 
ATOM      6  C   UNL     1      21.533  12.927  28.324  1.00  0.00     0.129 A 
ATOM      7  F   UNL     1      20.944  13.065  29.539  1.00  0.00    -0.207 F 
ENDROOT
BRANCH   1   8
ATOM      8  C   UNL     1      19.657  11.319  27.690  1.00  0.00     0.105 C 
ATOM      9  C   UNL     1      18.869  10.903  26.468  1.00  0.00     0.195 C 
ATOM     10  N   UNL     1      18.792  12.038  28.624  1.00  0.00    -0.240 NA
ATOM     11  S   UNL     1      18.296  12.326  25.576  1.00  0.00     0.239 S 
ATOM     12  C   UNL     1      18.010  12.995  28.230  1.00  0.00     0.205 C 
ATOM     13  O   UNL     1      17.084  11.923  24.887  1.00  0.00    -0.206 OA
ATOM     14  N   UNL     1      17.827  13.353  26.875  1.00  0.00    -0.243 N 
ATOM     15  O   UNL     1      19.376  13.030  24.957  1.00  0.00    -0.206 OA
ATOM     16  N   UNL     1      17.262  13.735  29.106  1.00  0.00    -0.369 N 
ATOM     17  C   UNL     1      20.003  10.040  28.458  1.00  0.00     0.044 C 
ATOM     18  C   UNL     1      17.031  14.522  26.452  1.00  0.00     0.167 C 
ATOM     19  H   UNL     1      17.320  13.560  30.073  1.00  0.00     0.159 HD
ATOM     20  H   UNL     1      16.665  14.442  28.769  1.00  0.00     0.159 HD
ENDBRANCH   1   8
BRANCH   3  21
ATOM     21  N   UNL     1      23.320  12.393  24.623  1.00  0.00    -0.321 N 
ATOM     22  C   UNL     1      23.735  11.195  24.068  1.00  0.00     0.274 C 
ATOM     23  O   UNL     1      23.799  10.128  24.665  1.00  0.00    -0.267 OA
ATOM     24  H   UNL     1      23.430  13.190  24.055  1.00  0.00     0.170 HD
BRANCH  22  25
ATOM     25  C   UNL     1      24.086  11.252  22.629  1.00  0.00     0.128 A 
ATOM     26  N   UNL     1      25.110  12.045  22.299  1.00  0.00    -0.248 NA
ATOM     27  C   UNL     1      23.372  10.498  21.713  1.00  0.00     0.037 A 
ATOM     28  C   UNL     1      25.444  12.116  20.999  1.00  0.00     0.151 A 
ATOM     29  C   UNL     1      23.743  10.587  20.383  1.00  0.00     0.043 A 
ATOM     30  C   UNL     1      24.790  11.410  20.015  1.00  0.00     0.141 A 
ATOM     31  F   UNL     1      25.192  11.521  18.738  1.00  0.00    -0.205 F 
ENDBRANCH  22  25
ENDBRANCH   3  21
TORSDOF 3
ENDMDL
MODEL 7
REMARK VINA RESULT:    -8.131      2.602      3.106
REMARK INTER + INTRA:          -9.817
REMARK INTER:                 -10.105
REMARK INTRA:                   0.288
REMARK UNBOUND:                -0.260
REMARK SMILES CN1C(N)=N[C@](C)(c2cc(NC(=O)c3ccc(F)cn3)ccc2F)CS1(=O)=O
REMARK SMILES IDX 8 1 9 2 10 3 21 4 22 5 23 6 24 7 6 8 25 9 5 10 26 11 3 12
REMARK SMILES IDX 27 13 2 14 28 15 4 16 7 17 1 18 11 21 12 22 13 23 14 25
REMARK SMILES IDX 20 26 15 27 19 28 16 29 17 30 18 31
REMARK H PARENT 4 19 4 20 11 24
ROOT
ATOM      1  C   UNL     1      26.485  13.581  22.698  1.00  0.00     0.018 A 
ATOM      2  C   UNL     1      25.636  13.011  23.646  1.00  0.00     0.035 A 
ATOM      3  C   UNL     1      24.274  13.209  23.628  1.00  0.00     0.042 A 
ATOM      4  C   UNL     1      23.693  14.016  22.658  1.00  0.00     0.029 A 
ATOM      5  C   UNL     1      24.520  14.587  21.707  1.00  0.00     0.042 A 
ATOM      6  C   UNL     1      25.881  14.354  21.718  1.00  0.00     0.129 A 
ATOM      7  F   UNL     1      26.667  14.903  20.756  1.00  0.00    -0.207 F 
ENDROOT
BRANCH   1   8
ATOM      8  C   UNL     1      27.986  13.342  22.743  1.00  0.00     0.105 C 
ATOM      9  C   UNL     1      28.541  13.008  24.110  1.00  0.00     0.195 C 
ATOM     10  N   UNL     1      28.736  14.449  22.154  1.00  0.00    -0.240 NA
ATOM     11  S   UNL     1      28.320  14.370  25.227  1.00  0.00     0.239 S 
ATOM     12  C   UNL     1      28.997  15.529  22.824  1.00  0.00     0.205 C 
ATOM     13  O   UNL     1      29.384  14.276  26.210  1.00  0.00    -0.206 OA
ATOM     14  N   UNL     1      28.695  15.696  24.194  1.00  0.00    -0.243 N 
ATOM     15  O   UNL     1      26.941  14.568  25.551  1.00  0.00    -0.206 OA
ATOM     16  N   UNL     1      29.620  16.608  22.258  1.00  0.00    -0.369 N 
ATOM     17  C   UNL     1      28.327  12.167  21.822  1.00  0.00     0.044 C 
ATOM     18  C   UNL     1      28.884  16.973  24.910  1.00  0.00     0.167 C 
ATOM     19  H   UNL     1      29.871  16.588  21.306  1.00  0.00     0.159 HD
ATOM     20  H   UNL     1      29.818  17.405  22.802  1.00  0.00     0.159 HD
ENDBRANCH   1   8
BRANCH   3  21
ATOM     21  N   UNL     1      23.535  12.581  24.639  1.00  0.00    -0.321 N 
ATOM     22  C   UNL     1      23.281  13.034  25.922  1.00  0.00     0.274 C 
ATOM     23  O   UNL     1      23.784  14.027  26.430  1.00  0.00    -0.267 OA
ATOM     24  H   UNL     1      23.147  11.706  24.408  1.00  0.00     0.170 HD
BRANCH  22  25
ATOM     25  C   UNL     1      22.289  12.241  26.688  1.00  0.00     0.128 A 
ATOM     26  N   UNL     1      22.615  11.945  27.951  1.00  0.00    -0.248 NA
ATOM     27  C   UNL     1      21.100  11.860  26.092  1.00  0.00     0.037 A 
ATOM     28  C   UNL     1      21.734  11.224  28.663  1.00  0.00     0.151 A 
ATOM     29  C   UNL     1      20.210  11.123  26.854  1.00  0.00     0.043 A 
ATOM     30  C   UNL     1      20.529  10.794  28.157  1.00  0.00     0.141 A 
ATOM     31  F   UNL     1      19.693  10.089  28.938  1.00  0.00    -0.205 F 
ENDBRANCH  22  25
ENDBRANCH   3  21
TORSDOF 3
ENDMDL
MODEL 8
REMARK VINA RESULT:    -7.988      1.874      2.461
REMARK INTER + INTRA:          -9.648
REMARK INTER:                 -10.634
REMARK INTRA:                   0.986
REMARK UNBOUND:                -0.260
REMARK SMILES CN1C(N)=N[C@](C)(c2cc(NC(=O)c3ccc(F)cn3)ccc2F)CS1(=O)=O
REMARK SMILES IDX 8 1 9 2 10 3 21 4 22 5 23 6 24 7 6 8 25 9 5 10 26 11 3 12
REMARK SMILES IDX 27 13 2 14 28 15 4 16 7 17 1 18 11 21 12 22 13 23 14 25
REMARK SMILES IDX 20 26 15 27 19 28 16 29 17 30 18 31
REMARK H PARENT 4 19 4 20 11 24
ROOT
ATOM      1  C   UNL     1      25.594  11.494  21.376  1.00  0.00     0.018 A 
ATOM      2  C   UNL     1      25.083  11.645  22.664  1.00  0.00     0.035 A 
ATOM      3  C   UNL     1      23.831  11.195  23.017  1.00  0.00     0.042 A 
ATOM      4  C   UNL     1      23.013  10.583  22.076  1.00  0.00     0.029 A 
ATOM      5  C   UNL     1      23.505  10.421  20.793  1.00  0.00     0.042 A 
ATOM      6  C   UNL     1      24.776  10.849  20.462  1.00  0.00     0.129 A 
ATOM      7  F   UNL     1      25.247  10.652  19.204  1.00  0.00    -0.207 F 
ENDROOT
BRANCH   1   8
ATOM      8  C   UNL     1      26.983  12.000  21.019  1.00  0.00     0.105 C 
ATOM      9  C   UNL     1      27.697  12.747  22.123  1.00  0.00     0.195 C 
ATOM     10  N   UNL     1      26.977  12.798  19.794  1.00  0.00    -0.240 NA
ATOM     11  S   UNL     1      26.824  14.236  22.538  1.00  0.00     0.239 S 
ATOM     12  C   UNL     1      26.639  14.051  19.799  1.00  0.00     0.205 C 
ATOM     13  O   UNL     1      27.814  15.168  23.047  1.00  0.00    -0.206 OA
ATOM     14  N   UNL     1      26.364  14.786  20.973  1.00  0.00    -0.243 N 
ATOM     15  O   UNL     1      25.579  13.955  23.182  1.00  0.00    -0.206 OA
ATOM     16  N   UNL     1      26.544  14.786  18.648  1.00  0.00    -0.369 N 
ATOM     17  C   UNL     1      27.863  10.804  20.644  1.00  0.00     0.044 C 
ATOM     18  C   UNL     1      25.860  16.174  20.954  1.00  0.00     0.167 C 
ATOM     19  H   UNL     1      26.718  14.362  17.777  1.00  0.00     0.159 HD
ATOM     20  H   UNL     1      26.303  15.740  18.691  1.00  0.00     0.159 HD
ENDBRANCH   1   8
BRANCH   3  21
ATOM     21  N   UNL     1      23.436  11.412  24.344  1.00  0.00    -0.321 N 
ATOM     22  C   UNL     1      22.656  12.437  24.849  1.00  0.00     0.274 C 
ATOM     23  O   UNL     1      22.283  13.416  24.215  1.00  0.00    -0.267 OA
ATOM     24  H   UNL     1      23.754  10.750  25.000  1.00  0.00     0.170 HD
BRANCH  22  25
ATOM     25  C   UNL     1      22.237  12.276  26.262  1.00  0.00     0.128 A 
ATOM     26  N   UNL     1      22.448  13.323  27.066  1.00  0.00    -0.248 NA
ATOM     27  C   UNL     1      21.653  11.092  26.679  1.00  0.00     0.037 A 
ATOM     28  C   UNL     1      22.079  13.199  28.352  1.00  0.00     0.151 A 
ATOM     29  C   UNL     1      21.279  10.997  28.008  1.00  0.00     0.043 A 
ATOM     30  C   UNL     1      21.497  12.061  28.862  1.00  0.00     0.141 A 
ATOM     31  F   UNL     1      21.143  12.018  30.157  1.00  0.00    -0.205 F 
ENDBRANCH  22  25
ENDBRANCH   3  21
TORSDOF 3
ENDMDL
MODEL 9
REMARK VINA RESULT:    -7.521      2.618      3.980
REMARK INTER + INTRA:          -9.100
REMARK INTER:                  -9.673
REMARK INTRA:                   0.573
REMARK UNBOUND:                -0.260
REMARK SMILES CN1C(N)=N[C@](C)(c2cc(NC(=O)c3ccc(F)cn3)ccc2F)CS1(=O)=O
REMARK SMILES IDX 8 1 9 2 10 3 21 4 22 5 23 6 24 7 6 8 25 9 5 10 26 11 3 12
REMARK SMILES IDX 27 13 2 14 28 15 4 16 7 17 1 18 11 21 12 22 13 23 14 25
REMARK SMILES IDX 20 26 15 27 19 28 16 29 17 30 18 31
REMARK H PARENT 4 19 4 20 11 24
ROOT
ATOM      1  C   UNL     1      25.933  14.061  22.845  1.00  0.00     0.018 A 
ATOM      2  C   UNL     1      24.898  13.999  23.776  1.00  0.00     0.035 A 
ATOM      3  C   UNL     1      25.130  13.906  25.130  1.00  0.00     0.042 A 
ATOM      4  C   UNL     1      26.429  13.847  25.618  1.00  0.00     0.029 A 
ATOM      5  C   UNL     1      27.469  13.910  24.708  1.00  0.00     0.042 A 
ATOM      6  C   UNL     1      27.222  14.035  23.356  1.00  0.00     0.129 A 
ATOM      7  F   UNL     1      28.261  14.125  22.486  1.00  0.00    -0.207 F 
ENDROOT
BRANCH   1   8
ATOM      8  C   UNL     1      25.644  14.166  21.355  1.00  0.00     0.105 C 
ATOM      9  C   UNL     1      24.219  13.855  20.955  1.00  0.00     0.195 C 
ATOM     10  N   UNL     1      26.576  13.370  20.558  1.00  0.00    -0.240 NA
ATOM     11  S   UNL     1      23.821  12.164  21.320  1.00  0.00     0.239 S 
ATOM     12  C   UNL     1      26.411  12.094  20.390  1.00  0.00     0.205 C 
ATOM     13  O   UNL     1      22.795  11.766  20.373  1.00  0.00    -0.206 OA
ATOM     14  N   UNL     1      25.280  11.381  20.848  1.00  0.00    -0.243 N 
ATOM     15  O   UNL     1      23.749  11.931  22.729  1.00  0.00    -0.206 OA
ATOM     16  N   UNL     1      27.321  11.321  19.721  1.00  0.00    -0.369 N 
ATOM     17  C   UNL     1      25.937  15.597  20.896  1.00  0.00     0.044 C 
ATOM     18  C   UNL     1      25.165   9.912  20.759  1.00  0.00     0.167 C 
ATOM     19  H   UNL     1      28.143  11.728  19.363  1.00  0.00     0.159 HD
ATOM     20  H   UNL     1      27.154  10.359  19.597  1.00  0.00     0.159 HD
ENDBRANCH   1   8
BRANCH   3  21
ATOM     21  N   UNL     1      24.001  13.849  25.957  1.00  0.00    -0.321 N 
ATOM     22  C   UNL     1      23.268  12.737  26.333  1.00  0.00     0.274 C 
ATOM     23  O   UNL     1      23.422  11.609  25.885  1.00  0.00    -0.267 OA
ATOM     24  H   UNL     1      23.689  14.711  26.318  1.00  0.00     0.170 HD
BRANCH  22  25
ATOM     25  C   UNL     1      22.254  12.974  27.389  1.00  0.00     0.128 A 
ATOM     26  N   UNL     1      21.036  12.470  27.165  1.00  0.00    -0.248 NA
ATOM     27  C   UNL     1      22.598  13.674  28.533  1.00  0.00     0.037 A 
ATOM     28  C   UNL     1      20.100  12.676  28.106  1.00  0.00     0.151 A 
ATOM     29  C   UNL     1      21.613  13.865  29.486  1.00  0.00     0.043 A 
ATOM     30  C   UNL     1      20.343  13.364  29.272  1.00  0.00     0.141 A 
ATOM     31  F   UNL     1      19.357  13.516  30.173  1.00  0.00    -0.205 F 
ENDBRANCH  22  25
ENDBRANCH   3  21
TORSDOF 3
ENDMDL
MODEL 10
REMARK VINA RESULT:    -7.433      2.451      3.497
REMARK INTER + INTRA:          -8.996
REMARK INTER:                  -9.297
REMARK INTRA:                   0.301
REMARK UNBOUND:                -0.260
REMARK SMILES CN1C(N)=N[C@](C)(c2cc(NC(=O)c3ccc(F)cn3)ccc2F)CS1(=O)=O
REMARK SMILES IDX 8 1 9 2 10 3 21 4 22 5 23 6 24 7 6 8 25 9 5 10 26 11 3 12
REMARK SMILES IDX 27 13 2 14 28 15 4 16 7 17 1 18 11 21 12 22 13 23 14 25
REMARK SMILES IDX 20 26 15 27 19 28 16 29 17 30 18 31
REMARK H PARENT 4 19 4 20 11 24
ROOT
ATOM      1  C   UNL     1      23.981  13.632  21.857  1.00  0.00     0.018 A 
ATOM      2  C   UNL     1      23.216  13.149  22.918  1.00  0.00     0.035 A 
ATOM      3  C   UNL     1      23.365  13.616  24.205  1.00  0.00     0.042 A 
ATOM      4  C   UNL     1      24.317  14.585  24.496  1.00  0.00     0.029 A 
ATOM      5  C   UNL     1      25.083  15.078  23.454  1.00  0.00     0.042 A 
ATOM      6  C   UNL     1      24.900  14.624  22.163  1.00  0.00     0.129 A 
ATOM      7  F   UNL     1      25.644  15.145  21.154  1.00  0.00    -0.207 F 
ENDROOT
BRANCH   1   8
ATOM      8  C   UNL     1      23.790  13.099  20.446  1.00  0.00     0.105 C 
ATOM      9  C   UNL     1      23.330  11.660  20.361  1.00  0.00     0.195 C 
ATOM     10  N   UNL     1      24.980  13.295  19.619  1.00  0.00    -0.240 NA
ATOM     11  S   UNL     1      24.556  10.569  21.038  1.00  0.00     0.239 S 
ATOM     12  C   UNL     1      25.990  12.483  19.675  1.00  0.00     0.205 C 
ATOM     13  O   UNL     1      24.394   9.295  20.362  1.00  0.00    -0.206 OA
ATOM     14  N   UNL     1      25.997  11.289  20.430  1.00  0.00    -0.243 N 
ATOM     15  O   UNL     1      24.670  10.719  22.455  1.00  0.00    -0.206 OA
ATOM     16  N   UNL     1      27.145  12.703  18.973  1.00  0.00    -0.369 N 
ATOM     17  C   UNL     1      22.735  13.950  19.734  1.00  0.00     0.044 C 
ATOM     18  C   UNL     1      27.196  10.440  20.582  1.00  0.00     0.167 C 
ATOM     19  H   UNL     1      27.236  13.510  18.416  1.00  0.00     0.159 HD
ATOM     20  H   UNL     1      27.884  12.055  19.025  1.00  0.00     0.159 HD
ENDBRANCH   1   8
BRANCH   3  21
ATOM     21  N   UNL     1      22.536  13.045  25.179  1.00  0.00    -0.321 N 
ATOM     22  C   UNL     1      22.719  11.863  25.874  1.00  0.00     0.274 C 
ATOM     23  O   UNL     1      23.598  11.041  25.648  1.00  0.00    -0.267 OA
ATOM     24  H   UNL     1      21.720  13.550  25.397  1.00  0.00     0.170 HD
BRANCH  22  25
ATOM     25  C   UNL     1      21.773  11.634  26.994  1.00  0.00     0.128 A 
ATOM     26  N   UNL     1      20.902  10.632  26.838  1.00  0.00    -0.248 NA
ATOM     27  C   UNL     1      21.833  12.431  28.123  1.00  0.00     0.037 A 
ATOM     28  C   UNL     1      20.032  10.408  27.837  1.00  0.00     0.151 A 
ATOM     29  C   UNL     1      20.928  12.172  29.137  1.00  0.00     0.043 A 
ATOM     30  C   UNL     1      20.009  11.150  28.995  1.00  0.00     0.141 A 
ATOM     31  F   UNL     1      19.118  10.856  29.957  1.00  0.00    -0.205 F 
ENDBRANCH  22  25
ENDBRANCH   3  21
TORSDOF 3
ENDMDL
MODEL 11
REMARK VINA RESULT:    -7.275      2.849      3.917
REMARK INTER + INTRA:          -8.811
REMARK INTER:                  -9.279
REMARK INTRA:                   0.468
REMARK UNBOUND:                -0.260
REMARK SMILES CN1C(N)=N[C@](C)(c2cc(NC(=O)c3ccc(F)cn3)ccc2F)CS1(=O)=O
REMARK SMILES IDX 8 1 9 2 10 3 21 4 22 5 23 6 24 7 6 8 25 9 5 10 26 11 3 12
REMARK SMILES IDX 27 13 2 14 28 15 4 16 7 17 1 18 11 21 12 22 13 23 14 25
REMARK SMILES IDX 20 26 15 27 19 28 16 29 17 30 18 31
REMARK H PARENT 4 19 4 20 11 24
ROOT
ATOM      1  C   UNL     1      27.068  14.219  23.282  1.00  0.00     0.018 A 
ATOM      2  C   UNL     1      25.746  13.814  23.457  1.00  0.00     0.035 A 
ATOM      3  C   UNL     1      25.167  13.706  24.701  1.00  0.00     0.042 A 
ATOM      4  C   UNL     1      25.903  13.983  25.846  1.00  0.00     0.029 A 
ATOM      5  C   UNL     1      27.217  14.390  25.691  1.00  0.00     0.042 A 
ATOM      6  C   UNL     1      27.775  14.524  24.435  1.00  0.00     0.129 A 
ATOM      7  F   UNL     1      29.057  14.953  24.310  1.00  0.00    -0.207 F 
ENDROOT
BRANCH   1   8
ATOM      8  C   UNL     1      27.678  14.331  21.894  1.00  0.00     0.105 C 
ATOM      9  C   UNL     1      26.921  13.611  20.801  1.00  0.00     0.195 C 
ATOM     10  N   UNL     1      29.084  13.929  21.878  1.00  0.00    -0.240 NA
ATOM     11  S   UNL     1      26.911  11.860  21.093  1.00  0.00     0.239 S 
ATOM     12  C   UNL     1      29.436  12.682  21.816  1.00  0.00     0.205 C 
ATOM     13  O   UNL     1      26.797  11.224  19.793  1.00  0.00    -0.206 OA
ATOM     14  N   UNL     1      28.525  11.616  21.640  1.00  0.00    -0.243 N 
ATOM     15  O   UNL     1      26.110  11.519  22.228  1.00  0.00    -0.206 OA
ATOM     16  N   UNL     1      30.745  12.287  21.890  1.00  0.00    -0.369 N 
ATOM     17  C   UNL     1      27.740  15.809  21.498  1.00  0.00     0.044 C 
ATOM     18  C   UNL     1      28.927  10.197  21.695  1.00  0.00     0.167 C 
ATOM     19  H   UNL     1      31.455  12.958  22.012  1.00  0.00     0.159 HD
ATOM     20  H   UNL     1      30.976  11.333  21.820  1.00  0.00     0.159 HD
ENDBRANCH   1   8
BRANCH   3  21
ATOM     21  N   UNL     1      23.831  13.286  24.737  1.00  0.00    -0.321 N 
ATOM     22  C   UNL     1      23.337  12.021  25.001  1.00  0.00     0.274 C 
ATOM     23  O   UNL     1      24.018  11.010  25.123  1.00  0.00    -0.267 OA
ATOM     24  H   UNL     1      23.157  13.980  24.552  1.00  0.00     0.170 HD
BRANCH  22  25
ATOM     25  C   UNL     1      21.867  11.938  25.176  1.00  0.00     0.128 A 
ATOM     26  N   UNL     1      21.193  13.089  25.082  1.00  0.00    -0.248 NA
ATOM     27  C   UNL     1      21.267  10.713  25.410  1.00  0.00     0.037 A 
ATOM     28  C   UNL     1      19.860  13.040  25.241  1.00  0.00     0.151 A 
ATOM     29  C   UNL     1      19.892  10.694  25.564  1.00  0.00     0.043 A 
ATOM     30  C   UNL     1      19.174  11.871  25.483  1.00  0.00     0.141 A 
ATOM     31  F   UNL     1      17.837  11.901  25.616  1.00  0.00    -0.205 F 
ENDBRANCH  22  25
ENDBRANCH   3  21
TORSDOF 3
ENDMDL
MODEL 12
REMARK VINA RESULT:    -7.103      3.018      4.332
REMARK INTER + INTRA:          -8.609
REMARK INTER:                  -8.572
REMARK INTRA:                  -0.037
REMARK UNBOUND:                -0.260
REMARK SMILES CN1C(N)=N[C@](C)(c2cc(NC(=O)c3ccc(F)cn3)ccc2F)CS1(=O)=O
REMARK SMILES IDX 8 1 9 2 10 3 21 4 22 5 23 6 24 7 6 8 25 9 5 10 26 11 3 12
REMARK SMILES IDX 27 13 2 14 28 15 4 16 7 17 1 18 11 21 12 22 13 23 14 25
REMARK SMILES IDX 20 26 15 27 19 28 16 29 17 30 18 31
REMARK H PARENT 4 19 4 20 11 24
ROOT
ATOM      1  C   UNL     1      28.076  13.538  23.660  1.00  0.00     0.018 A 
ATOM      2  C   UNL     1      26.762  13.173  23.949  1.00  0.00     0.035 A 
ATOM      3  C   UNL     1      26.166  13.461  25.156  1.00  0.00     0.042 A 
ATOM      4  C   UNL     1      26.876  14.120  26.151  1.00  0.00     0.029 A 
ATOM      5  C   UNL     1      28.181  14.493  25.881  1.00  0.00     0.042 A 
ATOM      6  C   UNL     1      28.756  14.225  24.654  1.00  0.00     0.129 A 
ATOM      7  F   UNL     1      30.028  14.629  24.404  1.00  0.00    -0.207 F 
ENDROOT
BRANCH   1   8
ATOM      8  C   UNL     1      28.706  13.208  22.316  1.00  0.00     0.105 C 
ATOM      9  C   UNL     1      29.584  14.294  21.735  1.00  0.00     0.195 C 
ATOM     10  N   UNL     1      27.710  12.787  21.332  1.00  0.00    -0.240 NA
ATOM     11  S   UNL     1      28.630  15.749  21.382  1.00  0.00     0.239 S 
ATOM     12  C   UNL     1      27.002  13.649  20.668  1.00  0.00     0.205 C 
ATOM     13  O   UNL     1      29.304  16.431  20.292  1.00  0.00    -0.206 OA
ATOM     14  N   UNL     1      27.198  15.046  20.736  1.00  0.00    -0.243 N 
ATOM     15  O   UNL     1      28.186  16.391  22.580  1.00  0.00    -0.206 OA
ATOM     16  N   UNL     1      26.006  13.269  19.809  1.00  0.00    -0.369 N 
ATOM     17  C   UNL     1      29.580  11.960  22.473  1.00  0.00     0.044 C 
ATOM     18  C   UNL     1      26.306  16.017  20.072  1.00  0.00     0.167 C 
ATOM     19  H   UNL     1      25.794  12.314  19.693  1.00  0.00     0.159 HD
ATOM     20  H   UNL     1      25.501  13.950  19.308  1.00  0.00     0.159 HD
ENDBRANCH   1   8
BRANCH   3  21
ATOM     21  N   UNL     1      24.841  13.036  25.319  1.00  0.00    -0.321 N 
ATOM     22  C   UNL     1      23.747  13.314  24.519  1.00  0.00     0.274 C 
ATOM     23  O   UNL     1      23.740  14.105  23.585  1.00  0.00    -0.267 OA
ATOM     24  H   UNL     1      24.667  12.465  26.102  1.00  0.00     0.170 HD
BRANCH  22  25
ATOM     25  C   UNL     1      22.519  12.544  24.836  1.00  0.00     0.128 A 
ATOM     26  N   UNL     1      21.439  13.260  25.166  1.00  0.00    -0.248 NA
ATOM     27  C   UNL     1      22.534  11.162  24.770  1.00  0.00     0.037 A 
ATOM     28  C   UNL     1      20.316  12.584  25.461  1.00  0.00     0.151 A 
ATOM     29  C   UNL     1      21.361  10.494  25.074  1.00  0.00     0.043 A 
ATOM     30  C   UNL     1      20.234  11.211  25.429  1.00  0.00     0.141 A 
ATOM     31  F   UNL     1      19.070  10.607  25.723  1.00  0.00    -0.205 F 
ENDBRANCH  22  25
ENDBRANCH   3  21
TORSDOF 3
ENDMDL
MODEL 13
REMARK VINA RESULT:    -7.036      4.726      9.175
REMARK INTER + INTRA:          -8.529
REMARK INTER:                  -8.944
REMARK INTRA:                   0.414
REMARK UNBOUND:                -0.260
REMARK SMILES CN1C(N)=N[C@](C)(c2cc(NC(=O)c3ccc(F)cn3)ccc2F)CS1(=O)=O
REMARK SMILES IDX 8 1 9 2 10 3 21 4 22 5 23 6 24 7 6 8 25 9 5 10 26 11 3 12
REMARK SMILES IDX 27 13 2 14 28 15 4 16 7 17 1 18 11 21 12 22 13 23 14 25
REMARK SMILES IDX 20 26 15 27 19 28 16 29 17 30 18 31
REMARK H PARENT 4 19 4 20 11 24
ROOT
ATOM      1  C   UNL     1      18.433  11.998  26.279  1.00  0.00     0.018 A 
ATOM      2  C   UNL     1      19.485  12.450  25.485  1.00  0.00     0.035 A 
ATOM      3  C   UNL     1      20.744  12.679  25.991  1.00  0.00     0.042 A 
ATOM      4  C   UNL     1      21.005  12.484  27.342  1.00  0.00     0.029 A 
ATOM      5  C   UNL     1      19.973  12.033  28.145  1.00  0.00     0.042 A 
ATOM      6  C   UNL     1      18.723  11.776  27.616  1.00  0.00     0.129 A 
ATOM      7  F   UNL     1      17.735  11.305  28.420  1.00  0.00    -0.207 F 
ENDROOT
BRANCH   1   8
ATOM      8  C   UNL     1      17.053  11.751  25.688  1.00  0.00     0.105 C 
ATOM      9  C   UNL     1      16.586  12.791  24.695  1.00  0.00     0.195 C 
ATOM     10  N   UNL     1      16.040  11.556  26.724  1.00  0.00    -0.240 NA
ATOM     11  S   UNL     1      16.407  14.373  25.480  1.00  0.00     0.239 S 
ATOM     12  C   UNL     1      15.483  12.558  27.331  1.00  0.00     0.205 C 
ATOM     13  O   UNL     1      15.392  15.094  24.733  1.00  0.00    -0.206 OA
ATOM     14  N   UNL     1      15.704  13.909  26.981  1.00  0.00    -0.243 N 
ATOM     15  O   UNL     1      17.673  14.924  25.851  1.00  0.00    -0.206 OA
ATOM     16  N   UNL     1      14.599  12.389  28.362  1.00  0.00    -0.369 N 
ATOM     17  C   UNL     1      17.062  10.405  24.959  1.00  0.00     0.044 C 
ATOM     18  C   UNL     1      15.161  15.041  27.758  1.00  0.00     0.167 C 
ATOM     19  H   UNL     1      14.380  11.483  28.679  1.00  0.00     0.159 HD
ATOM     20  H   UNL     1      14.182  13.173  28.787  1.00  0.00     0.159 HD
ENDBRANCH   1   8
BRANCH   3  21
ATOM     21  N   UNL     1      21.712  13.135  25.087  1.00  0.00    -0.321 N 
ATOM     22  C   UNL     1      22.714  12.410  24.466  1.00  0.00     0.274 C 
ATOM     23  O   UNL     1      23.000  11.246  24.716  1.00  0.00    -0.267 OA
ATOM     24  H   UNL     1      21.674  14.093  24.863  1.00  0.00     0.170 HD
BRANCH  22  25
ATOM     25  C   UNL     1      23.448  13.131  23.398  1.00  0.00     0.128 A 
ATOM     26  N   UNL     1      24.137  14.212  23.778  1.00  0.00    -0.248 NA
ATOM     27  C   UNL     1      23.404  12.666  22.095  1.00  0.00     0.037 A 
ATOM     28  C   UNL     1      24.807  14.884  22.827  1.00  0.00     0.151 A 
ATOM     29  C   UNL     1      24.109  13.376  21.139  1.00  0.00     0.043 A 
ATOM     30  C   UNL     1      24.818  14.504  21.504  1.00  0.00     0.141 A 
ATOM     31  F   UNL     1      25.525  15.220  20.613  1.00  0.00    -0.205 F 
ENDBRANCH  22  25
ENDBRANCH   3  21
TORSDOF 3
ENDMDL
MODEL 14
REMARK VINA RESULT:    -7.004      4.665      8.772
REMARK INTER + INTRA:          -8.492
REMARK INTER:                  -8.105
REMARK INTRA:                  -0.387
REMARK UNBOUND:                -0.260
REMARK SMILES CN1C(N)=N[C@](C)(c2cc(NC(=O)c3ccc(F)cn3)ccc2F)CS1(=O)=O
REMARK SMILES IDX 8 1 9 2 10 3 21 4 22 5 23 6 24 7 6 8 25 9 5 10 26 11 3 12
REMARK SMILES IDX 27 13 2 14 28 15 4 16 7 17 1 18 11 21 12 22 13 23 14 25
REMARK SMILES IDX 20 26 15 27 19 28 16 29 17 30 18 31
REMARK H PARENT 4 19 4 20 11 24
ROOT
ATOM      1  C   UNL     1      26.955  14.505  20.611  1.00  0.00     0.018 A 
ATOM      2  C   UNL     1      28.162  15.107  20.963  1.00  0.00     0.035 A 
ATOM      3  C   UNL     1      28.468  16.403  20.613  1.00  0.00     0.042 A 
ATOM      4  C   UNL     1      27.575  17.159  19.864  1.00  0.00     0.029 A 
ATOM      5  C   UNL     1      26.370  16.578  19.509  1.00  0.00     0.042 A 
ATOM      6  C   UNL     1      26.063  15.288  19.894  1.00  0.00     0.129 A 
ATOM      7  F   UNL     1      24.862  14.752  19.558  1.00  0.00    -0.207 F 
ENDROOT
BRANCH   1   8
ATOM      8  C   UNL     1      26.645  13.072  21.016  1.00  0.00     0.105 C 
ATOM      9  C   UNL     1      25.345  12.885  21.766  1.00  0.00     0.195 C 
ATOM     10  N   UNL     1      27.746  12.461  21.758  1.00  0.00    -0.240 NA
ATOM     11  S   UNL     1      25.391  13.738  23.322  1.00  0.00     0.239 S 
ATOM     12  C   UNL     1      27.911  12.671  23.028  1.00  0.00     0.205 C 
ATOM     13  O   UNL     1      24.497  13.022  24.214  1.00  0.00    -0.206 OA
ATOM     14  N   UNL     1      27.000  13.394  23.830  1.00  0.00    -0.243 N 
ATOM     15  O   UNL     1      25.384  15.157  23.146  1.00  0.00    -0.206 OA
ATOM     16  N   UNL     1      28.986  12.177  23.717  1.00  0.00    -0.369 N 
ATOM     17  C   UNL     1      26.563  12.209  19.753  1.00  0.00     0.044 C 
ATOM     18  C   UNL     1      27.262  13.730  25.243  1.00  0.00     0.167 C 
ATOM     19  H   UNL     1      29.677  11.658  23.245  1.00  0.00     0.159 HD
ATOM     20  H   UNL     1      29.069  12.341  24.684  1.00  0.00     0.159 HD
ENDBRANCH   1   8
BRANCH   3  21
ATOM     21  N   UNL     1      29.716  16.887  21.028  1.00  0.00    -0.321 N 
ATOM     22  C   UNL     1      30.149  17.148  22.315  1.00  0.00     0.274 C 
ATOM     23  O   UNL     1      29.444  17.116  23.316  1.00  0.00    -0.267 OA
ATOM     24  H   UNL     1      30.367  17.063  20.311  1.00  0.00     0.170 HD
BRANCH  22  25
ATOM     25  C   UNL     1      31.595  17.452  22.447  1.00  0.00     0.128 A 
ATOM     26  N   UNL     1      32.285  17.559  21.307  1.00  0.00    -0.248 NA
ATOM     27  C   UNL     1      32.154  17.618  23.703  1.00  0.00     0.037 A 
ATOM     28  C   UNL     1      33.597  17.830  21.402  1.00  0.00     0.151 A 
ATOM     29  C   UNL     1      33.507  17.902  23.767  1.00  0.00     0.043 A 
ATOM     30  C   UNL     1      34.244  18.006  22.604  1.00  0.00     0.141 A 
ATOM     31  F   UNL     1      35.558  18.289  22.616  1.00  0.00    -0.205 F 
ENDBRANCH  22  25
ENDBRANCH   3  21
TORSDOF 3
ENDMDL
MODEL 15
REMARK VINA RESULT:    -6.958      3.844      8.291
REMARK INTER + INTRA:          -8.438
REMARK INTER:                  -8.329
REMARK INTRA:                  -0.109
REMARK UNBOUND:                -0.260
REMARK SMILES CN1C(N)=N[C@](C)(c2cc(NC(=O)c3ccc(F)cn3)ccc2F)CS1(=O)=O
REMARK SMILES IDX 8 1 9 2 10 3 21 4 22 5 23 6 24 7 6 8 25 9 5 10 26 11 3 12
REMARK SMILES IDX 27 13 2 14 28 15 4 16 7 17 1 18 11 21 12 22 13 23 14 25
REMARK SMILES IDX 20 26 15 27 19 28 16 29 17 30 18 31
REMARK H PARENT 4 19 4 20 11 24
ROOT
ATOM      1  C   UNL     1      25.175  13.447  23.220  1.00  0.00     0.018 A 
ATOM      2  C   UNL     1      26.157  14.118  22.492  1.00  0.00     0.035 A 
ATOM      3  C   UNL     1      27.413  14.362  22.999  1.00  0.00     0.042 A 
ATOM      4  C   UNL     1      27.741  13.958  24.287  1.00  0.00     0.029 A 
ATOM      5  C   UNL     1      26.781  13.287  25.023  1.00  0.00     0.042 A 
ATOM      6  C   UNL     1      25.535  13.022  24.489  1.00  0.00     0.129 A 
ATOM      7  F   UNL     1      24.620  12.336  25.221  1.00  0.00    -0.207 F 
ENDROOT
BRANCH   1   8
ATOM      8  C   UNL     1      23.797  13.191  22.629  1.00  0.00     0.105 C 
ATOM      9  C   UNL     1      23.428  11.732  22.476  1.00  0.00     0.195 C 
ATOM     10  N   UNL     1      23.604  13.893  21.362  1.00  0.00    -0.240 NA
ATOM     11  S   UNL     1      24.512  10.928  21.324  1.00  0.00     0.239 S 
ATOM     12  C   UNL     1      24.054  13.417  20.243  1.00  0.00     0.205 C 
ATOM     13  O   UNL     1      23.758   9.833  20.741  1.00  0.00    -0.206 OA
ATOM     14  N   UNL     1      24.658  12.146  20.116  1.00  0.00    -0.243 N 
ATOM     15  O   UNL     1      25.837  10.803  21.846  1.00  0.00    -0.206 OA
ATOM     16  N   UNL     1      23.957  14.106  19.064  1.00  0.00    -0.369 N 
ATOM     17  C   UNL     1      22.744  13.828  23.539  1.00  0.00     0.044 C 
ATOM     18  C   UNL     1      25.276  11.670  18.863  1.00  0.00     0.167 C 
ATOM     19  H   UNL     1      23.551  15.002  19.049  1.00  0.00     0.159 HD
ATOM     20  H   UNL     1      24.294  13.705  18.230  1.00  0.00     0.159 HD
ENDBRANCH   1   8
BRANCH   3  21
ATOM     21  N   UNL     1      28.305  15.048  22.165  1.00  0.00    -0.321 N 
ATOM     22  C   UNL     1      29.105  16.133  22.475  1.00  0.00     0.274 C 
ATOM     23  O   UNL     1      29.064  16.762  23.524  1.00  0.00    -0.267 OA
ATOM     24  H   UNL     1      28.370  14.716  21.241  1.00  0.00     0.170 HD
BRANCH  22  25
ATOM     25  C   UNL     1      30.099  16.504  21.437  1.00  0.00     0.128 A 
ATOM     26  N   UNL     1      31.380  16.259  21.729  1.00  0.00    -0.248 NA
ATOM     27  C   UNL     1      29.675  17.061  20.243  1.00  0.00     0.037 A 
ATOM     28  C   UNL     1      32.298  16.590  20.807  1.00  0.00     0.151 A 
ATOM     29  C   UNL     1      30.644  17.386  19.310  1.00  0.00     0.043 A 
ATOM     30  C   UNL     1      31.977  17.153  19.593  1.00  0.00     0.141 A 
ATOM     31  F   UNL     1      32.952  17.444  18.715  1.00  0.00    -0.205 F 
ENDBRANCH  22  25
ENDBRANCH   3  21
TORSDOF 3
ENDMDL
MODEL 16
REMARK VINA RESULT:    -6.858      5.419      9.670
REMARK INTER + INTRA:          -8.320
REMARK INTER:                  -8.093
REMARK INTRA:                  -0.227
REMARK UNBOUND:                -0.260
REMARK SMILES CN1C(N)=N[C@](C)(c2cc(NC(=O)c3ccc(F)cn3)ccc2F)CS1(=O)=O
REMARK SMILES IDX 8 1 9 2 10 3 21 4 22 5 23 6 24 7 6 8 25 9 5 10 26 11 3 12
REMARK SMILES IDX 27 13 2 14 28 15 4 16 7 17 1 18 11 21 12 22 13 23 14 25
REMARK SMILES IDX 20 26 15 27 19 28 16 29 17 30 18 31
REMARK H PARENT 4 19 4 20 11 24
ROOT
ATOM      1  C   UNL     1      17.839  13.051  27.647  1.00  0.00     0.018 A 
ATOM      2  C   UNL     1      18.732  13.255  26.596  1.00  0.00     0.035 A 
ATOM      3  C   UNL     1      19.653  12.305  26.218  1.00  0.00     0.042 A 
ATOM      4  C   UNL     1      19.739  11.097  26.899  1.00  0.00     0.029 A 
ATOM      5  C   UNL     1      18.857  10.876  27.943  1.00  0.00     0.042 A 
ATOM      6  C   UNL     1      17.917  11.825  28.290  1.00  0.00     0.129 A 
ATOM      7  F   UNL     1      17.044  11.571  29.299  1.00  0.00    -0.207 F 
ENDROOT
BRANCH   1   8
ATOM      8  C   UNL     1      16.830  14.119  28.039  1.00  0.00     0.105 C 
ATOM      9  C   UNL     1      15.436  13.609  28.327  1.00  0.00     0.195 C 
ATOM     10  N   UNL     1      16.775  15.207  27.063  1.00  0.00    -0.240 NA
ATOM     11  S   UNL     1      14.716  12.895  26.870  1.00  0.00     0.239 S 
ATOM     12  C   UNL     1      16.084  15.107  25.970  1.00  0.00     0.205 C 
ATOM     13  O   UNL     1      13.278  13.047  27.002  1.00  0.00    -0.206 OA
ATOM     14  N   UNL     1      15.239  14.015  25.672  1.00  0.00    -0.243 N 
ATOM     15  O   UNL     1      15.365  11.675  26.504  1.00  0.00    -0.206 OA
ATOM     16  N   UNL     1      16.094  16.081  25.007  1.00  0.00    -0.369 N 
ATOM     17  C   UNL     1      17.322  14.822  29.308  1.00  0.00     0.044 C 
ATOM     18  C   UNL     1      14.556  13.857  24.372  1.00  0.00     0.167 C 
ATOM     19  H   UNL     1      16.653  16.883  25.125  1.00  0.00     0.159 HD
ATOM     20  H   UNL     1      15.543  15.979  24.198  1.00  0.00     0.159 HD
ENDBRANCH   1   8
BRANCH   3  21
ATOM     21  N   UNL     1      20.494  12.637  25.148  1.00  0.00    -0.321 N 
ATOM     22  C   UNL     1      21.838  12.965  25.184  1.00  0.00     0.274 C 
ATOM     23  O   UNL     1      22.492  13.145  26.202  1.00  0.00    -0.267 OA
ATOM     24  H   UNL     1      20.076  12.637  24.257  1.00  0.00     0.170 HD
BRANCH  22  25
ATOM     25  C   UNL     1      22.502  13.060  23.861  1.00  0.00     0.128 A 
ATOM     26  N   UNL     1      22.675  14.293  23.372  1.00  0.00    -0.248 NA
ATOM     27  C   UNL     1      22.913  11.910  23.209  1.00  0.00     0.037 A 
ATOM     28  C   UNL     1      23.270  14.404  22.173  1.00  0.00     0.151 A 
ATOM     29  C   UNL     1      23.529  12.058  21.979  1.00  0.00     0.043 A 
ATOM     30  C   UNL     1      23.708  13.320  21.446  1.00  0.00     0.141 A 
ATOM     31  F   UNL     1      24.309  13.513  20.260  1.00  0.00    -0.205 F 
ENDBRANCH  22  25
ENDBRANCH   3  21
TORSDOF 3
ENDMDL
MODEL 17
REMARK VINA RESULT:    -6.725      5.164      7.957
REMARK INTER + INTRA:          -8.164
REMARK INTER:                  -9.353
REMARK INTRA:                   1.189
REMARK UNBOUND:                -0.260
REMARK SMILES CN1C(N)=N[C@](C)(c2cc(NC(=O)c3ccc(F)cn3)ccc2F)CS1(=O)=O
REMARK SMILES IDX 8 1 9 2 10 3 21 4 22 5 23 6 24 7 6 8 25 9 5 10 26 11 3 12
REMARK SMILES IDX 27 13 2 14 28 15 4 16 7 17 1 18 11 21 12 22 13 23 14 25
REMARK SMILES IDX 20 26 15 27 19 28 16 29 17 30 18 31
REMARK H PARENT 4 19 4 20 11 24
ROOT
ATOM      1  C   UNL     1      19.506  11.590  26.704  1.00  0.00     0.018 A 
ATOM      2  C   UNL     1      18.667  12.550  27.268  1.00  0.00     0.035 A 
ATOM      3  C   UNL     1      17.412  12.816  26.770  1.00  0.00     0.042 A 
ATOM      4  C   UNL     1      16.940  12.136  25.653  1.00  0.00     0.029 A 
ATOM      5  C   UNL     1      17.758  11.177  25.083  1.00  0.00     0.042 A 
ATOM      6  C   UNL     1      19.002  10.899  25.613  1.00  0.00     0.129 A 
ATOM      7  F   UNL     1      19.773   9.932  25.052  1.00  0.00    -0.207 F 
ENDROOT
BRANCH   1   8
ATOM      8  C   UNL     1      20.887  11.317  27.280  1.00  0.00     0.105 C 
ATOM      9  C   UNL     1      21.852  12.480  27.207  1.00  0.00     0.195 C 
ATOM     10  N   UNL     1      21.497  10.121  26.701  1.00  0.00    -0.240 NA
ATOM     11  S   UNL     1      22.199  12.901  25.518  1.00  0.00     0.239 S 
ATOM     12  C   UNL     1      22.099  10.151  25.553  1.00  0.00     0.205 C 
ATOM     13  O   UNL     1      23.527  13.489  25.503  1.00  0.00    -0.206 OA
ATOM     14  N   UNL     1      22.327  11.334  24.816  1.00  0.00    -0.243 N 
ATOM     15  O   UNL     1      21.060  13.473  24.872  1.00  0.00    -0.206 OA
ATOM     16  N   UNL     1      22.596   9.022  24.959  1.00  0.00    -0.369 N 
ATOM     17  C   UNL     1      20.742  10.947  28.759  1.00  0.00     0.044 C 
ATOM     18  C   UNL     1      22.902  11.337  23.456  1.00  0.00     0.167 C 
ATOM     19  H   UNL     1      22.486   8.147  25.396  1.00  0.00     0.159 HD
ATOM     20  H   UNL     1      23.064   9.085  24.095  1.00  0.00     0.159 HD
ENDBRANCH   1   8
BRANCH   3  21
ATOM     21  N   UNL     1      16.672  13.807  27.427  1.00  0.00    -0.321 N 
ATOM     22  C   UNL     1      16.103  13.758  28.688  1.00  0.00     0.274 C 
ATOM     23  O   UNL     1      16.048  12.761  29.397  1.00  0.00    -0.267 OA
ATOM     24  H   UNL     1      16.541  14.646  26.929  1.00  0.00     0.170 HD
BRANCH  22  25
ATOM     25  C   UNL     1      15.563  15.044  29.189  1.00  0.00     0.128 A 
ATOM     26  N   UNL     1      15.279  15.099  30.495  1.00  0.00    -0.248 NA
ATOM     27  C   UNL     1      15.388  16.107  28.319  1.00  0.00     0.037 A 
ATOM     28  C   UNL     1      14.784  16.254  30.971  1.00  0.00     0.151 A 
ATOM     29  C   UNL     1      14.883  17.284  28.841  1.00  0.00     0.043 A 
ATOM     30  C   UNL     1      14.570  17.363  30.185  1.00  0.00     0.141 A 
ATOM     31  F   UNL     1      14.085  18.487  30.738  1.00  0.00    -0.205 F 
ENDBRANCH  22  25
ENDBRANCH   3  21
TORSDOF 3
ENDMDL
MODEL 18
REMARK VINA RESULT:    -6.616      3.322      5.555
REMARK INTER + INTRA:          -8.036
REMARK INTER:                  -9.004
REMARK INTRA:                   0.968
REMARK UNBOUND:                -0.260
REMARK SMILES CN1C(N)=N[C@](C)(c2cc(NC(=O)c3ccc(F)cn3)ccc2F)CS1(=O)=O
REMARK SMILES IDX 8 1 9 2 10 3 21 4 22 5 23 6 24 7 6 8 25 9 5 10 26 11 3 12
REMARK SMILES IDX 27 13 2 14 28 15 4 16 7 17 1 18 11 21 12 22 13 23 14 25
REMARK SMILES IDX 20 26 15 27 19 28 16 29 17 30 18 31
REMARK H PARENT 4 19 4 20 11 24
ROOT
ATOM      1  C   UNL     1      24.373  12.319  22.481  1.00  0.00     0.018 A 
ATOM      2  C   UNL     1      25.122  13.199  23.261  1.00  0.00     0.035 A 
ATOM      3  C   UNL     1      25.151  13.123  24.635  1.00  0.00     0.042 A 
ATOM      4  C   UNL     1      24.400  12.162  25.302  1.00  0.00     0.029 A 
ATOM      5  C   UNL     1      23.653  11.279  24.543  1.00  0.00     0.042 A 
ATOM      6  C   UNL     1      23.660  11.347  23.164  1.00  0.00     0.129 A 
ATOM      7  F   UNL     1      22.941  10.449  22.442  1.00  0.00    -0.207 F 
ENDROOT
BRANCH   1   8
ATOM      8  C   UNL     1      24.365  12.427  20.964  1.00  0.00     0.105 C 
ATOM      9  C   UNL     1      25.429  11.616  20.258  1.00  0.00     0.195 C 
ATOM     10  N   UNL     1      24.411  13.817  20.512  1.00  0.00    -0.240 NA
ATOM     11  S   UNL     1      27.050  12.196  20.692  1.00  0.00     0.239 S 
ATOM     12  C   UNL     1      25.527  14.475  20.446  1.00  0.00     0.205 C 
ATOM     13  O   UNL     1      27.915  11.884  19.568  1.00  0.00    -0.206 OA
ATOM     14  N   UNL     1      26.795  13.898  20.683  1.00  0.00    -0.243 N 
ATOM     15  O   UNL     1      27.367  11.904  22.055  1.00  0.00    -0.206 OA
ATOM     16  N   UNL     1      25.575  15.802  20.110  1.00  0.00    -0.369 N 
ATOM     17  C   UNL     1      23.010  11.942  20.441  1.00  0.00     0.044 C 
ATOM     18  C   UNL     1      28.042  14.687  20.726  1.00  0.00     0.167 C 
ATOM     19  H   UNL     1      24.741  16.292  19.926  1.00  0.00     0.159 HD
ATOM     20  H   UNL     1      26.442  16.264  20.052  1.00  0.00     0.159 HD
ENDBRANCH   1   8
BRANCH   3  21
ATOM     21  N   UNL     1      25.942  14.068  25.300  1.00  0.00    -0.321 N 
ATOM     22  C   UNL     1      27.322  14.133  25.371  1.00  0.00     0.274 C 
ATOM     23  O   UNL     1      28.090  13.274  24.956  1.00  0.00    -0.267 OA
ATOM     24  H   UNL     1      25.454  14.777  25.777  1.00  0.00     0.170 HD
BRANCH  22  25
ATOM     25  C   UNL     1      27.868  15.373  25.973  1.00  0.00     0.128 A 
ATOM     26  N   UNL     1      28.120  15.334  27.286  1.00  0.00    -0.248 NA
ATOM     27  C   UNL     1      28.098  16.484  25.179  1.00  0.00     0.037 A 
ATOM     28  C   UNL     1      28.611  16.447  27.854  1.00  0.00     0.151 A 
ATOM     29  C   UNL     1      28.610  17.613  25.793  1.00  0.00     0.043 A 
ATOM     30  C   UNL     1      28.867  17.602  27.150  1.00  0.00     0.141 A 
ATOM     31  F   UNL     1      29.373  18.672  27.788  1.00  0.00    -0.205 F 
ENDBRANCH  22  25
ENDBRANCH   3  21
TORSDOF 3
ENDMDL
MODEL 19
REMARK VINA RESULT:    -6.552      2.991      4.093
REMARK INTER + INTRA:          -7.961
REMARK INTER:                  -8.383
REMARK INTRA:                   0.422
REMARK UNBOUND:                -0.260
REMARK SMILES CN1C(N)=N[C@](C)(c2cc(NC(=O)c3ccc(F)cn3)ccc2F)CS1(=O)=O
REMARK SMILES IDX 8 1 9 2 10 3 21 4 22 5 23 6 24 7 6 8 25 9 5 10 26 11 3 12
REMARK SMILES IDX 27 13 2 14 28 15 4 16 7 17 1 18 11 21 12 22 13 23 14 25
REMARK SMILES IDX 20 26 15 27 19 28 16 29 17 30 18 31
REMARK H PARENT 4 19 4 20 11 24
ROOT
ATOM      1  C   UNL     1      24.426  13.288  23.135  1.00  0.00     0.018 A 
ATOM      2  C   UNL     1      23.131  13.152  23.633  1.00  0.00     0.035 A 
ATOM      3  C   UNL     1      22.850  13.211  24.979  1.00  0.00     0.042 A 
ATOM      4  C   UNL     1      23.872  13.388  25.904  1.00  0.00     0.029 A 
ATOM      5  C   UNL     1      25.163  13.527  25.427  1.00  0.00     0.042 A 
ATOM      6  C   UNL     1      25.426  13.499  24.072  1.00  0.00     0.129 A 
ATOM      7  F   UNL     1      26.699  13.667  23.629  1.00  0.00    -0.207 F 
ENDROOT
BRANCH   1   8
ATOM      8  C   UNL     1      24.704  13.222  21.641  1.00  0.00     0.105 C 
ATOM      9  C   UNL     1      23.632  12.542  20.819  1.00  0.00     0.195 C 
ATOM     10  N   UNL     1      26.009  12.630  21.352  1.00  0.00    -0.240 NA
ATOM     11  S   UNL     1      23.483  10.832  21.274  1.00  0.00     0.239 S 
ATOM     12  C   UNL     1      26.186  11.345  21.333  1.00  0.00     0.205 C 
ATOM     13  O   UNL     1      22.993  10.133  20.099  1.00  0.00    -0.206 OA
ATOM     14  N   UNL     1      25.139  10.406  21.468  1.00  0.00    -0.243 N 
ATOM     15  O   UNL     1      22.935  10.681  22.586  1.00  0.00    -0.206 OA
ATOM     16  N   UNL     1      27.420  10.779  21.150  1.00  0.00    -0.369 N 
ATOM     17  C   UNL     1      24.847  14.647  21.101  1.00  0.00     0.044 C 
ATOM     18  C   UNL     1      25.371   8.951  21.569  1.00  0.00     0.167 C 
ATOM     19  H   UNL     1      28.213  11.352  21.046  1.00  0.00     0.159 HD
ATOM     20  H   UNL     1      27.513   9.799  21.123  1.00  0.00     0.159 HD
ENDBRANCH   1   8
BRANCH   3  21
ATOM     21  N   UNL     1      21.507  13.057  25.347  1.00  0.00    -0.321 N 
ATOM     22  C   UNL     1      20.808  11.884  25.568  1.00  0.00     0.274 C 
ATOM     23  O   UNL     1      21.233  10.758  25.346  1.00  0.00    -0.267 OA
ATOM     24  H   UNL     1      20.996  13.891  25.463  1.00  0.00     0.170 HD
BRANCH  22  25
ATOM     25  C   UNL     1      19.455  12.054  26.153  1.00  0.00     0.128 A 
ATOM     26  N   UNL     1      19.289  11.608  27.402  1.00  0.00    -0.248 NA
ATOM     27  C   UNL     1      18.453  12.658  25.412  1.00  0.00     0.037 A 
ATOM     28  C   UNL     1      18.071  11.747  27.951  1.00  0.00     0.151 A 
ATOM     29  C   UNL     1      17.211  12.792  26.007  1.00  0.00     0.043 A 
ATOM     30  C   UNL     1      17.010  12.328  27.293  1.00  0.00     0.141 A 
ATOM     31  F   UNL     1      15.825  12.445  27.915  1.00  0.00    -0.205 F 
ENDBRANCH  22  25
ENDBRANCH   3  21
TORSDOF 3
ENDMDL
