MODEL 1
REMARK VINA RESULT:    -9.859      0.000      0.000
REMARK INTER + INTRA:         -11.332
REMARK INTER:                 -11.011
REMARK INTRA:                  -0.321
REMARK UNBOUND:                -0.321
REMARK SMILES O=C(N[C@H]1CN2CCC1CC2)c1cc2cccc(Cl)c2s1
REMARK SMILES IDX 12 1 13 2 14 3 20 4 18 5 17 6 16 7 15 8 21 9 19 10 2 11 3 12
REMARK SMILES IDX 1 13 4 15 9 16 5 17 8 18 10 19 6 20 7 21 11 22
REMARK H PARENT 3 14
ROOT
ATOM      1  C   UNL     1     143.910 138.496  90.711  1.00  0.00     0.093 A 
ATOM      2  C   UNL     1     143.417 137.267  90.986  1.00  0.00     0.034 A 
ATOM      3  C   UNL     1     144.317 136.214  91.363  1.00  0.00    -0.005 A 
ATOM      4  C   UNL     1     145.693 136.630  91.403  1.00  0.00     0.054 A 
ATOM      5  C   UNL     1     146.668 135.726  91.750  1.00  0.00     0.058 A 
ATOM      6  C   UNL     1     146.317 134.409  92.062  1.00  0.00     0.022 A 
ATOM      7  C   UNL     1     144.972 134.006  92.022  1.00  0.00     0.002 A 
ATOM      8  C   UNL     1     143.980 134.922  91.669  1.00  0.00     0.010 A 
ATOM      9  S   UNL     1     145.633 138.384  90.928  1.00  0.00    -0.128 S 
ATOM     10  Cl  UNL     1     148.377 136.231  91.801  1.00  0.00    -0.083 Cl
ENDROOT
BRANCH   1  11
ATOM     11  C   UNL     1     143.086 139.720  90.294  1.00  0.00     0.261 C 
ATOM     12  N   UNL     1     141.641 139.640  90.203  1.00  0.00    -0.347 N 
ATOM     13  O   UNL     1     143.636 140.738  90.041  1.00  0.00    -0.268 OA
ATOM     14  H   UNL     1     141.177 138.797  90.409  1.00  0.00     0.164 HD
BRANCH  12  15
ATOM     15  C   UNL     1     140.869 140.837  89.798  1.00  0.00     0.099 C 
ATOM     16  C   UNL     1     139.615 140.898  90.541  1.00  0.00     0.015 C 
ATOM     17  C   UNL     1     140.535 140.762  88.295  1.00  0.00     0.109 C 
ATOM     18  C   UNL     1     138.872 142.042  90.092  1.00  0.00     0.021 C 
ATOM     19  C   UNL     1     138.841 139.697  90.237  1.00  0.00     0.021 C 
ATOM     20  N   UNL     1     139.155 140.805  88.080  1.00  0.00    -0.301 NA
ATOM     21  C   UNL     1     138.622 141.957  88.615  1.00  0.00     0.085 C 
ATOM     22  C   UNL     1     138.544 139.681  88.689  1.00  0.00     0.085 C 
ENDBRANCH  12  15
ENDBRANCH   1  11
TORSDOF 2
ENDMDL
MODEL 2
REMARK VINA RESULT:    -9.121      1.325      1.878
REMARK INTER + INTRA:         -10.508
REMARK INTER:                 -10.205
REMARK INTRA:                  -0.303
REMARK UNBOUND:                -0.321
REMARK SMILES O=C(N[C@H]1CN2CCC1CC2)c1cc2cccc(Cl)c2s1
REMARK SMILES IDX 12 1 13 2 14 3 20 4 18 5 17 6 16 7 15 8 21 9 19 10 2 11 3 12
REMARK SMILES IDX 1 13 4 15 9 16 5 17 8 18 10 19 6 20 7 21 11 22
REMARK H PARENT 3 14
ROOT
ATOM      1  C   UNL     1     144.242 138.651  90.672  1.00  0.00     0.093 A 
ATOM      2  C   UNL     1     145.579 138.710  90.871  1.00  0.00     0.034 A 
ATOM      3  C   UNL     1     146.280 137.536  91.309  1.00  0.00    -0.005 A 
ATOM      4  C   UNL     1     145.422 136.395  91.482  1.00  0.00     0.054 A 
ATOM      5  C   UNL     1     145.956 135.199  91.898  1.00  0.00     0.058 A 
ATOM      6  C   UNL     1     147.328 135.098  92.148  1.00  0.00     0.022 A 
ATOM      7  C   UNL     1     148.163 136.216  91.978  1.00  0.00     0.002 A 
ATOM      8  C   UNL     1     147.623 137.432  91.557  1.00  0.00     0.010 A 
ATOM      9  S   UNL     1     143.771 137.017  91.044  1.00  0.00    -0.128 S 
ATOM     10  Cl  UNL     1     144.902 133.777  92.117  1.00  0.00    -0.083 Cl
ENDROOT
BRANCH   1  11
ATOM     11  C   UNL     1     143.352 139.810  90.210  1.00  0.00     0.261 C 
ATOM     12  N   UNL     1     141.919 139.633  90.077  1.00  0.00    -0.347 N 
ATOM     13  O   UNL     1     143.841 140.859  89.957  1.00  0.00    -0.268 OA
ATOM     14  H   UNL     1     141.506 138.764  90.283  1.00  0.00     0.164 HD
BRANCH  12  15
ATOM     15  C   UNL     1     141.083 140.770  89.629  1.00  0.00     0.099 C 
ATOM     16  C   UNL     1     139.870 140.847  90.437  1.00  0.00     0.015 C 
ATOM     17  C   UNL     1     140.670 140.570  88.157  1.00  0.00     0.109 C 
ATOM     18  C   UNL     1     139.062 141.929  89.947  1.00  0.00     0.021 C 
ATOM     19  C   UNL     1     139.125 139.603  90.268  1.00  0.00     0.021 C 
ATOM     20  N   UNL     1     139.279 140.551  88.020  1.00  0.00    -0.301 NA
ATOM     21  C   UNL     1     138.735 141.724  88.498  1.00  0.00     0.085 C 
ATOM     22  C   UNL     1     138.744 139.458  88.745  1.00  0.00     0.085 C 
ENDBRANCH  12  15
ENDBRANCH   1  11
TORSDOF 2
ENDMDL
MODEL 3
REMARK VINA RESULT:    -7.983      1.783      2.282
REMARK INTER + INTRA:          -9.238
REMARK INTER:                  -8.925
REMARK INTRA:                  -0.313
REMARK UNBOUND:                -0.321
REMARK SMILES O=C(N[C@H]1CN2CCC1CC2)c1cc2cccc(Cl)c2s1
REMARK SMILES IDX 12 1 13 2 14 3 20 4 18 5 17 6 16 7 15 8 21 9 19 10 2 11 3 12
REMARK SMILES IDX 1 13 4 15 9 16 5 17 8 18 10 19 6 20 7 21 11 22
REMARK H PARENT 3 14
ROOT
ATOM      1  C   UNL     1     142.388 137.017  90.850  1.00  0.00     0.093 A 
ATOM      2  C   UNL     1     142.778 135.749  91.116  1.00  0.00     0.034 A 
ATOM      3  C   UNL     1     144.139 135.494  91.494  1.00  0.00    -0.005 A 
ATOM      4  C   UNL     1     144.946 136.683  91.547  1.00  0.00     0.054 A 
ATOM      5  C   UNL     1     146.272 136.591  91.897  1.00  0.00     0.058 A 
ATOM      6  C   UNL     1     146.827 135.345  92.200  1.00  0.00     0.022 A 
ATOM      7  C   UNL     1     146.035 134.185  92.147  1.00  0.00     0.002 A 
ATOM      8  C   UNL     1     144.689 134.275  91.792  1.00  0.00     0.010 A 
ATOM      9  S   UNL     1     143.797 138.012  91.081  1.00  0.00    -0.128 S 
ATOM     10  Cl  UNL     1     147.282 138.059  91.964  1.00  0.00    -0.083 Cl
ENDROOT
BRANCH   1  11
ATOM     11  C   UNL     1     140.979 137.453  90.433  1.00  0.00     0.261 C 
ATOM     12  N   UNL     1     140.660 138.857  90.267  1.00  0.00    -0.347 N 
ATOM     13  O   UNL     1     140.143 136.634  90.248  1.00  0.00    -0.268 OA
ATOM     14  H   UNL     1     141.348 139.544  90.421  1.00  0.00     0.164 HD
BRANCH  12  15
ATOM     15  C   UNL     1     139.291 139.251  89.864  1.00  0.00     0.099 C 
ATOM     16  C   UNL     1     139.283 139.671  88.466  1.00  0.00     0.015 C 
ATOM     17  C   UNL     1     138.809 140.435  90.725  1.00  0.00     0.109 C 
ATOM     18  C   UNL     1     137.953 140.089  88.121  1.00  0.00     0.021 C 
ATOM     19  C   UNL     1     140.177 140.818  88.326  1.00  0.00     0.021 C 
ATOM     20  N   UNL     1     138.481 141.537  89.932  1.00  0.00    -0.301 NA
ATOM     21  C   UNL     1     137.502 141.200  89.023  1.00  0.00     0.085 C 
ATOM     22  C   UNL     1     139.632 141.983  89.237  1.00  0.00     0.085 C 
ENDBRANCH  12  15
ENDBRANCH   1  11
TORSDOF 2
ENDMDL
MODEL 4
REMARK VINA RESULT:    -7.625      3.935      8.000
REMARK INTER + INTRA:          -8.837
REMARK INTER:                  -8.525
REMARK INTRA:                  -0.312
REMARK UNBOUND:                -0.321
REMARK SMILES O=C(N[C@H]1CN2CCC1CC2)c1cc2cccc(Cl)c2s1
REMARK SMILES IDX 12 1 13 2 14 3 20 4 18 5 17 6 16 7 15 8 21 9 19 10 2 11 3 12
REMARK SMILES IDX 1 13 4 15 9 16 5 17 8 18 10 19 6 20 7 21 11 22
REMARK H PARENT 3 14
ROOT
ATOM      1  C   UNL     1     144.115 138.435  91.348  1.00  0.00     0.093 A 
ATOM      2  C   UNL     1     143.126 137.524  91.195  1.00  0.00     0.034 A 
ATOM      3  C   UNL     1     141.871 137.933  90.632  1.00  0.00    -0.005 A 
ATOM      4  C   UNL     1     141.831 139.329  90.287  1.00  0.00     0.054 A 
ATOM      5  C   UNL     1     140.691 139.862  89.736  1.00  0.00     0.058 A 
ATOM      6  C   UNL     1     139.577 139.046  89.514  1.00  0.00     0.022 A 
ATOM      7  C   UNL     1     139.620 137.683  89.854  1.00  0.00     0.002 A 
ATOM      8  C   UNL     1     140.776 137.139  90.413  1.00  0.00     0.010 A 
ATOM      9  S   UNL     1     143.477 139.942  90.755  1.00  0.00    -0.128 S 
ATOM     10  Cl  UNL     1     140.630 141.591  89.305  1.00  0.00    -0.083 Cl
ENDROOT
BRANCH   1  11
ATOM     11  C   UNL     1     145.505 138.160  91.932  1.00  0.00     0.261 C 
ATOM     12  N   UNL     1     146.608 137.788  91.067  1.00  0.00    -0.347 N 
ATOM     13  O   UNL     1     145.678 138.249  93.100  1.00  0.00    -0.268 OA
ATOM     14  H   UNL     1     146.472 137.710  90.095  1.00  0.00     0.164 HD
BRANCH  12  15
ATOM     15  C   UNL     1     147.941 137.527  91.657  1.00  0.00     0.099 C 
ATOM     16  C   UNL     1     148.980 138.145  90.838  1.00  0.00     0.015 C 
ATOM     17  C   UNL     1     148.205 136.009  91.707  1.00  0.00     0.109 C 
ATOM     18  C   UNL     1     150.259 137.834  91.412  1.00  0.00     0.021 C 
ATOM     19  C   UNL     1     148.920 137.559  89.501  1.00  0.00     0.021 C 
ATOM     20  N   UNL     1     149.358 135.673  90.992  1.00  0.00    -0.301 NA
ATOM     21  C   UNL     1     150.448 136.348  91.496  1.00  0.00     0.085 C 
ATOM     22  C   UNL     1     149.188 136.011  89.627  1.00  0.00     0.085 C 
ENDBRANCH  12  15
ENDBRANCH   1  11
TORSDOF 2
ENDMDL
MODEL 5
REMARK VINA RESULT:    -7.532      3.904      8.138
REMARK INTER + INTRA:          -8.733
REMARK INTER:                  -8.431
REMARK INTRA:                  -0.302
REMARK UNBOUND:                -0.321
REMARK SMILES O=C(N[C@H]1CN2CCC1CC2)c1cc2cccc(Cl)c2s1
REMARK SMILES IDX 12 1 13 2 14 3 20 4 18 5 17 6 16 7 15 8 21 9 19 10 2 11 3 12
REMARK SMILES IDX 1 13 4 15 9 16 5 17 8 18 10 19 6 20 7 21 11 22
REMARK H PARENT 3 14
ROOT
ATOM      1  C   UNL     1     144.394 138.309  91.447  1.00  0.00     0.093 A 
ATOM      2  C   UNL     1     143.690 139.410  91.098  1.00  0.00     0.034 A 
ATOM      3  C   UNL     1     142.323 139.272  90.685  1.00  0.00    -0.005 A 
ATOM      4  C   UNL     1     141.859 137.911  90.702  1.00  0.00     0.054 A 
ATOM      5  C   UNL     1     140.567 137.627  90.332  1.00  0.00     0.058 A 
ATOM      6  C   UNL     1     139.711 138.661  89.941  1.00  0.00     0.022 A 
ATOM      7  C   UNL     1     140.168 139.990  89.925  1.00  0.00     0.002 A 
ATOM      8  C   UNL     1     141.480 140.281  90.300  1.00  0.00     0.010 A 
ATOM      9  S   UNL     1     143.305 136.964  91.266  1.00  0.00    -0.128 S 
ATOM     10  Cl  UNL     1     139.982 135.942  90.348  1.00  0.00    -0.083 Cl
ENDROOT
BRANCH   1  11
ATOM     11  C   UNL     1     145.857 138.288  91.906  1.00  0.00     0.261 C 
ATOM     12  N   UNL     1     146.893 137.756  91.042  1.00  0.00    -0.347 N 
ATOM     13  O   UNL     1     146.141 138.707  92.977  1.00  0.00    -0.268 OA
ATOM     14  H   UNL     1     146.665 137.403  90.153  1.00  0.00     0.164 HD
BRANCH  12  15
ATOM     15  C   UNL     1     148.298 137.747  91.511  1.00  0.00     0.099 C 
ATOM     16  C   UNL     1     149.197 138.039  90.398  1.00  0.00     0.015 C 
ATOM     17  C   UNL     1     148.657 136.356  92.068  1.00  0.00     0.109 C 
ATOM     18  C   UNL     1     150.550 137.978  90.876  1.00  0.00     0.021 C 
ATOM     19  C   UNL     1     149.020 137.006  89.381  1.00  0.00     0.021 C 
ATOM     20  N   UNL     1     149.739 135.799  91.381  1.00  0.00    -0.301 NA
ATOM     21  C   UNL     1     150.837 136.628  91.464  1.00  0.00     0.085 C 
ATOM     22  C   UNL     1     149.394 135.615  90.019  1.00  0.00     0.085 C 
ENDBRANCH  12  15
ENDBRANCH   1  11
TORSDOF 2
ENDMDL
MODEL 6
REMARK VINA RESULT:    -7.391      3.437      7.810
REMARK INTER + INTRA:          -8.576
REMARK INTER:                  -8.260
REMARK INTRA:                  -0.316
REMARK UNBOUND:                -0.321
REMARK SMILES O=C(N[C@H]1CN2CCC1CC2)c1cc2cccc(Cl)c2s1
REMARK SMILES IDX 12 1 13 2 14 3 20 4 18 5 17 6 16 7 15 8 21 9 19 10 2 11 3 12
REMARK SMILES IDX 1 13 4 15 9 16 5 17 8 18 10 19 6 20 7 21 11 22
REMARK H PARENT 3 14
ROOT
ATOM      1  C   UNL     1     142.864 139.915  90.267  1.00  0.00     0.093 A 
ATOM      2  C   UNL     1     141.773 140.264  90.988  1.00  0.00     0.034 A 
ATOM      3  C   UNL     1     140.502 140.383  90.332  1.00  0.00    -0.005 A 
ATOM      4  C   UNL     1     140.561 140.097  88.924  1.00  0.00     0.054 A 
ATOM      5  C   UNL     1     139.418 140.170  88.165  1.00  0.00     0.058 A 
ATOM      6  C   UNL     1     138.205 140.521  88.766  1.00  0.00     0.022 A 
ATOM      7  C   UNL     1     138.151 140.800  90.142  1.00  0.00     0.002 A 
ATOM      8  C   UNL     1     139.311 140.727  90.914  1.00  0.00     0.010 A 
ATOM      9  S   UNL     1     142.312 139.703  88.630  1.00  0.00    -0.128 S 
ATOM     10  Cl  UNL     1     139.480 139.819  86.418  1.00  0.00    -0.083 Cl
ENDROOT
BRANCH   1  11
ATOM     11  C   UNL     1     144.285 139.749  90.816  1.00  0.00     0.261 C 
ATOM     12  N   UNL     1     144.892 138.435  90.905  1.00  0.00    -0.347 N 
ATOM     13  O   UNL     1     144.890 140.702  91.174  1.00  0.00    -0.268 OA
ATOM     14  H   UNL     1     144.395 137.638  90.612  1.00  0.00     0.164 HD
BRANCH  12  15
ATOM     15  C   UNL     1     146.267 138.303  91.439  1.00  0.00     0.099 C 
ATOM     16  C   UNL     1     147.202 138.029  90.352  1.00  0.00     0.015 C 
ATOM     17  C   UNL     1     146.332 137.130  92.437  1.00  0.00     0.109 C 
ATOM     18  C   UNL     1     148.515 137.861  90.909  1.00  0.00     0.021 C 
ATOM     19  C   UNL     1     146.809 136.776  89.712  1.00  0.00     0.021 C 
ATOM     20  N   UNL     1     147.271 136.176  92.036  1.00  0.00    -0.301 NA
ATOM     21  C   UNL     1     148.518 136.751  91.917  1.00  0.00     0.085 C 
ATOM     22  C   UNL     1     146.889 135.626  90.788  1.00  0.00     0.085 C 
ENDBRANCH  12  15
ENDBRANCH   1  11
TORSDOF 2
ENDMDL
MODEL 7
REMARK VINA RESULT:    -7.390      1.549      1.794
REMARK INTER + INTRA:          -8.575
REMARK INTER:                  -8.272
REMARK INTRA:                  -0.302
REMARK UNBOUND:                -0.321
REMARK SMILES O=C(N[C@H]1CN2CCC1CC2)c1cc2cccc(Cl)c2s1
REMARK SMILES IDX 12 1 13 2 14 3 20 4 18 5 17 6 16 7 15 8 21 9 19 10 2 11 3 12
REMARK SMILES IDX 1 13 4 15 9 16 5 17 8 18 10 19 6 20 7 21 11 22
REMARK H PARENT 3 14
ROOT
ATOM      1  C   UNL     1     144.042 138.566  91.095  1.00  0.00     0.093 A 
ATOM      2  C   UNL     1     144.527 137.754  92.062  1.00  0.00     0.034 A 
ATOM      3  C   UNL     1     145.720 136.996  91.815  1.00  0.00    -0.005 A 
ATOM      4  C   UNL     1     146.269 137.214  90.504  1.00  0.00     0.054 A 
ATOM      5  C   UNL     1     147.414 136.554  90.127  1.00  0.00     0.058 A 
ATOM      6  C   UNL     1     148.037 135.676  91.018  1.00  0.00     0.022 A 
ATOM      7  C   UNL     1     147.497 135.464  92.298  1.00  0.00     0.002 A 
ATOM      8  C   UNL     1     146.335 136.133  92.683  1.00  0.00     0.010 A 
ATOM      9  S   UNL     1     145.129 138.408  89.744  1.00  0.00    -0.128 S 
ATOM     10  Cl  UNL     1     148.103 136.816  88.503  1.00  0.00    -0.083 Cl
ENDROOT
BRANCH   1  11
ATOM     11  C   UNL     1     142.784 139.435  91.201  1.00  0.00     0.261 C 
ATOM     12  N   UNL     1     141.702 139.287  90.248  1.00  0.00    -0.347 N 
ATOM     13  O   UNL     1     142.698 140.237  92.069  1.00  0.00    -0.268 OA
ATOM     14  H   UNL     1     141.767 138.625  89.522  1.00  0.00     0.164 HD
BRANCH  12  15
ATOM     15  C   UNL     1     140.498 140.140  90.373  1.00  0.00     0.099 C 
ATOM     16  C   UNL     1     139.296 139.346  90.138  1.00  0.00     0.015 C 
ATOM     17  C   UNL     1     140.542 141.269  89.325  1.00  0.00     0.109 C 
ATOM     18  C   UNL     1     138.152 140.211  90.222  1.00  0.00     0.021 C 
ATOM     19  C   UNL     1     139.363 138.801  88.784  1.00  0.00     0.021 C 
ATOM     20  N   UNL     1     139.425 141.226  88.487  1.00  0.00    -0.301 NA
ATOM     21  C   UNL     1     138.267 141.328  89.227  1.00  0.00     0.085 C 
ATOM     22  C   UNL     1     139.415 140.005  87.769  1.00  0.00     0.085 C 
ENDBRANCH  12  15
ENDBRANCH   1  11
TORSDOF 2
ENDMDL
MODEL 8
REMARK VINA RESULT:    -7.360      4.251      8.305
REMARK INTER + INTRA:          -8.542
REMARK INTER:                  -8.234
REMARK INTRA:                  -0.308
REMARK UNBOUND:                -0.321
REMARK SMILES O=C(N[C@H]1CN2CCC1CC2)c1cc2cccc(Cl)c2s1
REMARK SMILES IDX 12 1 13 2 14 3 20 4 18 5 17 6 16 7 15 8 21 9 19 10 2 11 3 12
REMARK SMILES IDX 1 13 4 15 9 16 5 17 8 18 10 19 6 20 7 21 11 22
REMARK H PARENT 3 14
ROOT
ATOM      1  C   UNL     1     144.732 136.463  91.218  1.00  0.00     0.093 A 
ATOM      2  C   UNL     1     143.604 135.730  91.073  1.00  0.00     0.034 A 
ATOM      3  C   UNL     1     142.364 136.393  90.781  1.00  0.00    -0.005 A 
ATOM      4  C   UNL     1     142.496 137.821  90.674  1.00  0.00     0.054 A 
ATOM      5  C   UNL     1     141.390 138.588  90.397  1.00  0.00     0.058 A 
ATOM      6  C   UNL     1     140.145 137.976  90.219  1.00  0.00     0.022 A 
ATOM      7  C   UNL     1     140.020 136.580  90.325  1.00  0.00     0.002 A 
ATOM      8  C   UNL     1     141.142 135.799  90.607  1.00  0.00     0.010 A 
ATOM      9  S   UNL     1     144.263 138.122  90.979  1.00  0.00    -0.128 S 
ATOM     10  Cl  UNL     1     141.541 140.359  90.264  1.00  0.00    -0.083 Cl
ENDROOT
BRANCH   1  11
ATOM     11  C   UNL     1     146.126 135.909  91.532  1.00  0.00     0.261 C 
ATOM     12  N   UNL     1     147.312 136.562  91.013  1.00  0.00    -0.347 N 
ATOM     13  O   UNL     1     146.234 134.938  92.200  1.00  0.00    -0.268 OA
ATOM     14  H   UNL     1     147.231 137.368  90.455  1.00  0.00     0.164 HD
BRANCH  12  15
ATOM     15  C   UNL     1     148.648 136.006  91.331  1.00  0.00     0.099 C 
ATOM     16  C   UNL     1     149.461 137.013  92.007  1.00  0.00     0.015 C 
ATOM     17  C   UNL     1     149.369 135.597  90.032  1.00  0.00     0.109 C 
ATOM     18  C   UNL     1     150.761 136.457  92.258  1.00  0.00     0.021 C 
ATOM     19  C   UNL     1     149.614 138.157  91.111  1.00  0.00     0.021 C 
ATOM     20  N   UNL     1     150.584 136.273  89.893  1.00  0.00    -0.301 NA
ATOM     21  C   UNL     1     151.400 136.018  90.974  1.00  0.00     0.085 C 
ATOM     22  C   UNL     1     150.347 137.666  89.805  1.00  0.00     0.085 C 
ENDBRANCH  12  15
ENDBRANCH   1  11
TORSDOF 2
ENDMDL
MODEL 9
REMARK VINA RESULT:    -7.218      2.032      2.729
REMARK INTER + INTRA:          -8.383
REMARK INTER:                  -8.220
REMARK INTRA:                  -0.164
REMARK UNBOUND:                -0.321
REMARK SMILES O=C(N[C@H]1CN2CCC1CC2)c1cc2cccc(Cl)c2s1
REMARK SMILES IDX 12 1 13 2 14 3 20 4 18 5 17 6 16 7 15 8 21 9 19 10 2 11 3 12
REMARK SMILES IDX 1 13 4 15 9 16 5 17 8 18 10 19 6 20 7 21 11 22
REMARK H PARENT 3 14
ROOT
ATOM      1  C   UNL     1     142.444 137.297  90.725  1.00  0.00     0.093 A 
ATOM      2  C   UNL     1     143.424 138.156  91.090  1.00  0.00     0.034 A 
ATOM      3  C   UNL     1     144.684 137.639  91.543  1.00  0.00    -0.005 A 
ATOM      4  C   UNL     1     144.740 136.202  91.545  1.00  0.00     0.054 A 
ATOM      5  C   UNL     1     145.887 135.565  91.954  1.00  0.00     0.058 A 
ATOM      6  C   UNL     1     146.992 136.318  92.364  1.00  0.00     0.022 A 
ATOM      7  C   UNL     1     146.933 137.722  92.361  1.00  0.00     0.002 A 
ATOM      8  C   UNL     1     145.769 138.370  91.947  1.00  0.00     0.010 A 
ATOM      9  S   UNL     1     143.099 135.699  90.944  1.00  0.00    -0.128 S 
ATOM     10  Cl  UNL     1     145.967 133.784  91.962  1.00  0.00    -0.083 Cl
ENDROOT
BRANCH   1  11
ATOM     11  C   UNL     1     141.049 137.688  90.225  1.00  0.00     0.261 C 
ATOM     12  N   UNL     1     140.819 138.988  89.625  1.00  0.00    -0.347 N 
ATOM     13  O   UNL     1     140.153 136.922  90.332  1.00  0.00    -0.268 OA
ATOM     14  H   UNL     1     141.558 139.631  89.535  1.00  0.00     0.164 HD
BRANCH  12  15
ATOM     15  C   UNL     1     139.461 139.340  89.150  1.00  0.00     0.099 C 
ATOM     16  C   UNL     1     139.525 140.507  88.275  1.00  0.00     0.015 C 
ATOM     17  C   UNL     1     138.558 139.687  90.350  1.00  0.00     0.109 C 
ATOM     18  C   UNL     1     138.190 140.848  87.870  1.00  0.00     0.021 C 
ATOM     19  C   UNL     1     140.075 141.624  89.038  1.00  0.00     0.021 C 
ATOM     20  N   UNL     1     138.047 140.983  90.240  1.00  0.00    -0.301 NA
ATOM     21  C   UNL     1     137.332 141.119  89.070  1.00  0.00     0.085 C 
ATOM     22  C   UNL     1     139.111 141.918  90.249  1.00  0.00     0.085 C 
ENDBRANCH  12  15
ENDBRANCH   1  11
TORSDOF 2
ENDMDL
MODEL 10
REMARK VINA RESULT:    -7.201      3.491      7.871
REMARK INTER + INTRA:          -8.364
REMARK INTER:                  -8.047
REMARK INTRA:                  -0.317
REMARK UNBOUND:                -0.321
REMARK SMILES O=C(N[C@H]1CN2CCC1CC2)c1cc2cccc(Cl)c2s1
REMARK SMILES IDX 12 1 13 2 14 3 20 4 18 5 17 6 16 7 15 8 21 9 19 10 2 11 3 12
REMARK SMILES IDX 1 13 4 15 9 16 5 17 8 18 10 19 6 20 7 21 11 22
REMARK H PARENT 3 14
ROOT
ATOM      1  C   UNL     1     142.859 140.031  90.292  1.00  0.00     0.093 A 
ATOM      2  C   UNL     1     142.446 140.173  89.011  1.00  0.00     0.034 A 
ATOM      3  C   UNL     1     141.047 140.330  88.734  1.00  0.00    -0.005 A 
ATOM      4  C   UNL     1     140.229 140.317  89.917  1.00  0.00     0.054 A 
ATOM      5  C   UNL     1     138.866 140.458  89.805  1.00  0.00     0.058 A 
ATOM      6  C   UNL     1     138.284 140.614  88.543  1.00  0.00     0.022 A 
ATOM      7  C   UNL     1     139.087 140.626  87.390  1.00  0.00     0.002 A 
ATOM      8  C   UNL     1     140.470 140.482  87.501  1.00  0.00     0.010 A 
ATOM      9  S   UNL     1     141.421 140.094  91.271  1.00  0.00    -0.128 S 
ATOM     10  Cl  UNL     1     137.843 140.442  91.265  1.00  0.00    -0.083 Cl
ENDROOT
BRANCH   1  11
ATOM     11  C   UNL     1     144.310 139.852  90.751  1.00  0.00     0.261 C 
ATOM     12  N   UNL     1     144.947 138.551  90.694  1.00  0.00    -0.347 N 
ATOM     13  O   UNL     1     144.914 140.786  91.159  1.00  0.00    -0.268 OA
ATOM     14  H   UNL     1     144.451 137.770  90.359  1.00  0.00     0.164 HD
BRANCH  12  15
ATOM     15  C   UNL     1     146.350 138.407  91.144  1.00  0.00     0.099 C 
ATOM     16  C   UNL     1     147.168 137.858  90.066  1.00  0.00     0.015 C 
ATOM     17  C   UNL     1     146.421 137.439  92.342  1.00  0.00     0.109 C 
ATOM     18  C   UNL     1     148.509 137.688  90.550  1.00  0.00     0.021 C 
ATOM     19  C   UNL     1     146.636 136.544  89.710  1.00  0.00     0.021 C 
ATOM     20  N   UNL     1     147.254 136.352  92.067  1.00  0.00    -0.301 NA
ATOM     21  C   UNL     1     148.523 136.789  91.751  1.00  0.00     0.085 C 
ATOM     22  C   UNL     1     146.730 135.613  90.978  1.00  0.00     0.085 C 
ENDBRANCH  12  15
ENDBRANCH   1  11
TORSDOF 2
ENDMDL
MODEL 11
REMARK VINA RESULT:    -6.935      5.080      9.433
REMARK INTER + INTRA:          -8.067
REMARK INTER:                  -7.814
REMARK INTRA:                  -0.253
REMARK UNBOUND:                -0.321
REMARK SMILES O=C(N[C@H]1CN2CCC1CC2)c1cc2cccc(Cl)c2s1
REMARK SMILES IDX 12 1 13 2 14 3 20 4 18 5 17 6 16 7 15 8 21 9 19 10 2 11 3 12
REMARK SMILES IDX 1 13 4 15 9 16 5 17 8 18 10 19 6 20 7 21 11 22
REMARK H PARENT 3 14
ROOT
ATOM      1  C   UNL     1     146.765 136.901  91.848  1.00  0.00     0.093 A 
ATOM      2  C   UNL     1     146.493 138.217  91.687  1.00  0.00     0.034 A 
ATOM      3  C   UNL     1     145.157 138.626  91.359  1.00  0.00    -0.005 A 
ATOM      4  C   UNL     1     144.238 137.526  91.243  1.00  0.00     0.054 A 
ATOM      5  C   UNL     1     142.921 137.768  90.935  1.00  0.00     0.058 A 
ATOM      6  C   UNL     1     142.482 139.081  90.736  1.00  0.00     0.022 A 
ATOM      7  C   UNL     1     143.384 140.153  90.849  1.00  0.00     0.002 A 
ATOM      8  C   UNL     1     144.721 139.910  91.162  1.00  0.00     0.010 A 
ATOM      9  S   UNL     1     145.262 136.063  91.583  1.00  0.00    -0.128 S 
ATOM     10  Cl  UNL     1     141.774 136.411  90.787  1.00  0.00    -0.083 Cl
ENDROOT
BRANCH   1  11
ATOM     11  C   UNL     1     148.133 136.304  92.195  1.00  0.00     0.261 C 
ATOM     12  N   UNL     1     149.352 137.028  91.889  1.00  0.00    -0.347 N 
ATOM     13  O   UNL     1     148.194 135.242  92.714  1.00  0.00    -0.268 OA
ATOM     14  H   UNL     1     149.310 137.910  91.455  1.00  0.00     0.164 HD
BRANCH  12  15
ATOM     15  C   UNL     1     150.661 136.428  92.234  1.00  0.00     0.099 C 
ATOM     16  C   UNL     1     151.664 137.476  92.396  1.00  0.00     0.015 C 
ATOM     17  C   UNL     1     151.124 135.489  91.103  1.00  0.00     0.109 C 
ATOM     18  C   UNL     1     152.929 136.859  92.685  1.00  0.00     0.021 C 
ATOM     19  C   UNL     1     151.782 138.199  91.133  1.00  0.00     0.021 C 
ATOM     20  N   UNL     1     152.361 135.888  90.589  1.00  0.00    -0.301 NA
ATOM     21  C   UNL     1     153.310 135.910  91.588  1.00  0.00     0.085 C 
ATOM     22  C   UNL     1     152.248 137.181  90.023  1.00  0.00     0.085 C 
ENDBRANCH  12  15
ENDBRANCH   1  11
TORSDOF 2
ENDMDL
