MODEL 1
REMARK VINA RESULT:   -10.346      0.000      0.000
REMARK INTER + INTRA:         -18.732
REMARK INTER:                 -16.998
REMARK INTRA:                  -1.734
REMARK UNBOUND:                -1.734
REMARK SMILES CCOc1cc2ncc(C#N)c(Nc3ccc(OCc4ccccn4)c(Cl)c3)c2cc1NC(=O)/C=C/CN(C)C
REMARK SMILES IDX 7 1 11 2 29 3 12 4 6 5 30 6 31 7 4 8 5 9 9 10 8 11 10 12
REMARK SMILES IDX 13 13 14 15 26 16 28 17 17 18 16 19 15 20 27 21 18 22 19 23
REMARK SMILES IDX 20 24 25 25 21 26 24 27 22 28 23 29 32 30 33 31 34 32 35 34
REMARK SMILES IDX 36 35 37 36 38 37 39 38 40 39 3 40 2 41 1 42
REMARK H PARENT 13 14 32 33
ROOT
ATOM      1  N   UNL     1     -41.921  47.154  14.480  1.00  0.00    -0.255 NA
ATOM      2  N   UNL     1     -41.233  51.092  11.815  1.00  0.00    -0.192 NA
ATOM      3  C   UNL     1     -40.500  48.509  15.875  1.00  0.00     0.027 A 
ATOM      4  C   UNL     1     -40.486  49.502  14.887  1.00  0.00     0.068 A 
ATOM      5  C   UNL     1     -41.240  47.334  15.627  1.00  0.00     0.076 A 
ATOM      6  C   UNL     1     -39.800  48.665  17.084  1.00  0.00     0.042 A 
ATOM      7  C   UNL     1     -39.829  47.662  18.049  1.00  0.00     0.084 A 
ATOM      8  C   UNL     1     -40.556  46.502  17.811  1.00  0.00     0.144 A 
ATOM      9  C   UNL     1     -41.252  46.348  16.609  1.00  0.00     0.077 A 
ATOM     10  C   UNL     1     -41.189  49.319  13.704  1.00  0.00     0.094 A 
ATOM     11  C   UNL     1     -41.884  48.137  13.552  1.00  0.00     0.133 A 
ATOM     12  C   UNL     1     -41.213  50.297  12.661  1.00  0.00     0.103 C 
ENDROOT
BRANCH   4  13
ATOM     13  N   UNL     1     -39.760  50.707  15.079  1.00  0.00    -0.354 N 
ATOM     14  H   UNL     1     -40.347  51.473  15.397  1.00  0.00     0.167 HD
BRANCH  13  15
ATOM     15  C   UNL     1     -38.404  51.027  14.922  1.00  0.00     0.040 A 
ATOM     16  C   UNL     1     -36.587  52.620  15.096  1.00  0.00     0.085 A 
ATOM     17  C   UNL     1     -37.936  52.303  15.253  1.00  0.00     0.050 A 
ATOM     18  C   UNL     1     -35.698  51.663  14.605  1.00  0.00     0.138 A 
ATOM     19  C   UNL     1     -36.158  50.390  14.272  1.00  0.00     0.050 A 
ATOM     20  C   UNL     1     -37.507  50.072  14.429  1.00  0.00     0.030 A 
ATOM     21  Cl  UNL     1     -36.045  54.203  15.516  1.00  0.00    -0.080 Cl
BRANCH  18  22
ATOM     22  O   UNL     1     -34.374  51.946  14.442  1.00  0.00    -0.486 OA
BRANCH  22  23
ATOM     23  C   UNL     1     -33.535  51.790  15.584  1.00  0.00     0.285 C 
BRANCH  23  24
ATOM     24  C   UNL     1     -32.110  51.665  15.130  1.00  0.00     0.078 A 
ATOM     25  N   UNL     1     -31.300  50.913  15.902  1.00  0.00    -0.258 NA
ATOM     26  C   UNL     1     -31.715  52.310  13.974  1.00  0.00     0.027 A 
ATOM     27  C   UNL     1     -30.018  50.803  15.487  1.00  0.00     0.111 A 
ATOM     28  C   UNL     1     -30.389  52.174  13.579  1.00  0.00     0.004 A 
ATOM     29  C   UNL     1     -29.518  51.407  14.346  1.00  0.00     0.020 A 
ENDBRANCH  23  24
ENDBRANCH  22  23
ENDBRANCH  18  22
ENDBRANCH  13  15
ENDBRANCH   4  13
BRANCH   7  30
ATOM     30  N   UNL     1     -39.127  47.834  19.244  1.00  0.00    -0.319 N 
ATOM     31  C   UNL     1     -39.632  48.216  20.494  1.00  0.00     0.248 C 
ATOM     32  O   UNL     1     -40.797  48.475  20.772  1.00  0.00    -0.270 OA
ATOM     33  H   UNL     1     -38.127  47.654  19.177  1.00  0.00     0.170 HD
BRANCH  31  34
ATOM     34  C   UNL     1     -38.553  48.288  21.524  1.00  0.00     0.068 C 
ATOM     35  C   UNL     1     -37.718  47.256  21.708  1.00  0.00    -0.006 C 
BRANCH  35  36
ATOM     36  C   UNL     1     -36.610  47.266  22.718  1.00  0.00     0.111 C 
BRANCH  36  37
ATOM     37  N   UNL     1     -35.708  46.134  22.535  1.00  0.00    -0.306 NA
ATOM     38  C   UNL     1     -34.535  46.533  21.757  1.00  0.00     0.105 C 
ATOM     39  C   UNL     1     -36.401  45.025  21.878  1.00  0.00     0.105 C 
ENDBRANCH  36  37
ENDBRANCH  35  36
ENDBRANCH  31  34
ENDBRANCH   7  30
BRANCH   8  40
ATOM     40  O   UNL     1     -40.604  45.502  18.736  1.00  0.00    -0.492 OA
BRANCH  40  41
ATOM     41  C   UNL     1     -41.834  45.323  19.433  1.00  0.00     0.226 C 
ATOM     42  C   UNL     1     -42.323  43.906  19.215  1.00  0.00     0.049 C 
ENDBRANCH  40  41
ENDBRANCH   8  40
TORSDOF 11
ENDMDL
MODEL 2
REMARK VINA RESULT:    -9.764      1.793      2.241
REMARK INTER + INTRA:         -17.776
REMARK INTER:                 -15.984
REMARK INTRA:                  -1.793
REMARK UNBOUND:                -1.734
REMARK SMILES CCOc1cc2ncc(C#N)c(Nc3ccc(OCc4ccccn4)c(Cl)c3)c2cc1NC(=O)/C=C/CN(C)C
REMARK SMILES IDX 7 1 11 2 29 3 12 4 6 5 30 6 31 7 4 8 5 9 9 10 8 11 10 12
REMARK SMILES IDX 13 13 14 15 26 16 28 17 17 18 16 19 15 20 27 21 18 22 19 23
REMARK SMILES IDX 20 24 25 25 21 26 24 27 22 28 23 29 32 30 33 31 34 32 35 34
REMARK SMILES IDX 36 35 37 36 38 37 39 38 40 39 3 40 2 41 1 42
REMARK H PARENT 13 14 32 33
ROOT
ATOM      1  N   UNL     1     -43.514  49.570  14.544  1.00  0.00    -0.255 NA
ATOM      2  N   UNL     1     -40.247  51.054  11.348  1.00  0.00    -0.192 NA
ATOM      3  C   UNL     1     -41.433  48.855  15.525  1.00  0.00     0.027 A 
ATOM      4  C   UNL     1     -40.739  49.396  14.435  1.00  0.00     0.068 A 
ATOM      5  C   UNL     1     -42.839  48.966  15.540  1.00  0.00     0.076 A 
ATOM      6  C   UNL     1     -40.760  48.218  16.582  1.00  0.00     0.042 A 
ATOM      7  C   UNL     1     -41.474  47.688  17.654  1.00  0.00     0.084 A 
ATOM      8  C   UNL     1     -42.859  47.794  17.674  1.00  0.00     0.144 A 
ATOM      9  C   UNL     1     -43.527  48.428  16.623  1.00  0.00     0.077 A 
ATOM     10  C   UNL     1     -41.432  50.020  13.407  1.00  0.00     0.094 A 
ATOM     11  C   UNL     1     -42.807  50.080  13.509  1.00  0.00     0.133 A 
ATOM     12  C   UNL     1     -40.778  50.591  12.270  1.00  0.00     0.103 C 
ENDROOT
BRANCH   4  13
ATOM     13  N   UNL     1     -39.324  49.316  14.364  1.00  0.00    -0.354 N 
ATOM     14  H   UNL     1     -39.002  48.538  13.796  1.00  0.00     0.167 HD
BRANCH  13  15
ATOM     15  C   UNL     1     -38.305  50.104  14.918  1.00  0.00     0.040 A 
ATOM     16  C   UNL     1     -37.479  52.261  15.648  1.00  0.00     0.085 A 
ATOM     17  C   UNL     1     -38.493  51.478  15.096  1.00  0.00     0.050 A 
ATOM     18  C   UNL     1     -36.270  51.674  16.024  1.00  0.00     0.138 A 
ATOM     19  C   UNL     1     -36.076  50.304  15.848  1.00  0.00     0.050 A 
ATOM     20  C   UNL     1     -37.090  49.521  15.297  1.00  0.00     0.030 A 
ATOM     21  Cl  UNL     1     -37.745  53.953  15.854  1.00  0.00    -0.080 Cl
BRANCH  18  22
ATOM     22  O   UNL     1     -35.262  52.415  16.566  1.00  0.00    -0.486 OA
BRANCH  22  23
ATOM     23  C   UNL     1     -34.433  53.139  15.659  1.00  0.00     0.285 C 
BRANCH  23  24
ATOM     24  C   UNL     1     -33.154  52.382  15.455  1.00  0.00     0.078 A 
ATOM     25  N   UNL     1     -32.879  52.003  14.190  1.00  0.00    -0.258 NA
ATOM     26  C   UNL     1     -32.347  52.122  16.545  1.00  0.00     0.027 A 
ATOM     27  C   UNL     1     -31.726  51.321  14.012  1.00  0.00     0.111 A 
ATOM     28  C   UNL     1     -31.168  51.419  16.323  1.00  0.00     0.004 A 
ATOM     29  C   UNL     1     -30.845  51.008  15.034  1.00  0.00     0.020 A 
ENDBRANCH  23  24
ENDBRANCH  22  23
ENDBRANCH  18  22
ENDBRANCH  13  15
ENDBRANCH   4  13
BRANCH   7  30
ATOM     30  N   UNL     1     -40.788  47.058  18.695  1.00  0.00    -0.319 N 
ATOM     31  C   UNL     1     -40.575  45.685  18.880  1.00  0.00     0.248 C 
ATOM     32  O   UNL     1     -40.956  44.774  18.156  1.00  0.00    -0.270 OA
ATOM     33  H   UNL     1     -40.404  47.691  19.393  1.00  0.00     0.170 HD
BRANCH  31  34
ATOM     34  C   UNL     1     -39.792  45.414  20.122  1.00  0.00     0.068 C 
ATOM     35  C   UNL     1     -38.485  45.707  20.182  1.00  0.00    -0.006 C 
BRANCH  35  36
ATOM     36  C   UNL     1     -37.644  45.468  21.399  1.00  0.00     0.111 C 
BRANCH  36  37
ATOM     37  N   UNL     1     -36.617  46.493  21.550  1.00  0.00    -0.306 NA
ATOM     38  C   UNL     1     -35.312  45.880  21.800  1.00  0.00     0.105 C 
ATOM     39  C   UNL     1     -36.963  47.413  22.634  1.00  0.00     0.105 C 
ENDBRANCH  36  37
ENDBRANCH  35  36
ENDBRANCH  31  34
ENDBRANCH   7  30
BRANCH   8  40
ATOM     40  O   UNL     1     -43.586  47.285  18.709  1.00  0.00    -0.492 OA
BRANCH  40  41
ATOM     41  C   UNL     1     -44.728  46.501  18.373  1.00  0.00     0.226 C 
ATOM     42  C   UNL     1     -45.355  45.972  19.646  1.00  0.00     0.049 C 
ENDBRANCH  40  41
ENDBRANCH   8  40
TORSDOF 11
ENDMDL
MODEL 3
REMARK VINA RESULT:    -8.644      2.500      3.252
REMARK INTER + INTRA:         -15.937
REMARK INTER:                 -14.278
REMARK INTRA:                  -1.659
REMARK UNBOUND:                -1.734
REMARK SMILES CCOc1cc2ncc(C#N)c(Nc3ccc(OCc4ccccn4)c(Cl)c3)c2cc1NC(=O)/C=C/CN(C)C
REMARK SMILES IDX 7 1 11 2 29 3 12 4 6 5 30 6 31 7 4 8 5 9 9 10 8 11 10 12
REMARK SMILES IDX 13 13 14 15 26 16 28 17 17 18 16 19 15 20 27 21 18 22 19 23
REMARK SMILES IDX 20 24 25 25 21 26 24 27 22 28 23 29 32 30 33 31 34 32 35 34
REMARK SMILES IDX 36 35 37 36 38 37 39 38 40 39 3 40 2 41 1 42
REMARK H PARENT 13 14 32 33
ROOT
ATOM      1  N   UNL     1     -43.409  49.932  13.792  1.00  0.00    -0.255 NA
ATOM      2  N   UNL     1     -39.560  51.377  11.305  1.00  0.00    -0.192 NA
ATOM      3  C   UNL     1     -41.576  48.968  15.023  1.00  0.00     0.027 A 
ATOM      4  C   UNL     1     -40.674  49.530  14.110  1.00  0.00     0.068 A 
ATOM      5  C   UNL     1     -42.953  49.197  14.823  1.00  0.00     0.076 A 
ATOM      6  C   UNL     1     -41.135  48.195  16.111  1.00  0.00     0.042 A 
ATOM      7  C   UNL     1     -42.053  47.646  17.003  1.00  0.00     0.084 A 
ATOM      8  C   UNL     1     -43.411  47.868  16.812  1.00  0.00     0.144 A 
ATOM      9  C   UNL     1     -43.849  48.637  15.730  1.00  0.00     0.077 A 
ATOM     10  C   UNL     1     -41.141  50.290  13.046  1.00  0.00     0.094 A 
ATOM     11  C   UNL     1     -42.506  50.459  12.934  1.00  0.00     0.133 A 
ATOM     12  C   UNL     1     -40.268  50.889  12.084  1.00  0.00     0.103 C 
ENDROOT
BRANCH   4  13
ATOM     13  N   UNL     1     -39.276  49.336  14.258  1.00  0.00    -0.354 N 
ATOM     14  H   UNL     1     -38.956  48.461  13.852  1.00  0.00     0.167 HD
BRANCH  13  15
ATOM     15  C   UNL     1     -38.271  50.117  14.846  1.00  0.00     0.040 A 
ATOM     16  C   UNL     1     -37.479  52.258  15.657  1.00  0.00     0.085 A 
ATOM     17  C   UNL     1     -38.479  51.482  15.072  1.00  0.00     0.050 A 
ATOM     18  C   UNL     1     -36.264  51.674  16.019  1.00  0.00     0.138 A 
ATOM     19  C   UNL     1     -36.050  50.314  15.796  1.00  0.00     0.050 A 
ATOM     20  C   UNL     1     -37.051  49.538  15.211  1.00  0.00     0.030 A 
ATOM     21  Cl  UNL     1     -37.770  53.938  15.922  1.00  0.00    -0.080 Cl
BRANCH  18  22
ATOM     22  O   UNL     1     -35.269  52.409  16.593  1.00  0.00    -0.486 OA
BRANCH  22  23
ATOM     23  C   UNL     1     -34.456  53.190  15.719  1.00  0.00     0.285 C 
BRANCH  23  24
ATOM     24  C   UNL     1     -33.136  52.501  15.535  1.00  0.00     0.078 A 
ATOM     25  N   UNL     1     -32.692  52.387  14.267  1.00  0.00    -0.258 NA
ATOM     26  C   UNL     1     -32.463  52.033  16.647  1.00  0.00     0.027 A 
ATOM     27  C   UNL     1     -31.502  51.766  14.108  1.00  0.00     0.111 A 
ATOM     28  C   UNL     1     -31.242  51.401  16.444  1.00  0.00     0.004 A 
ATOM     29  C   UNL     1     -30.745  51.261  15.152  1.00  0.00     0.020 A 
ENDBRANCH  23  24
ENDBRANCH  22  23
ENDBRANCH  18  22
ENDBRANCH  13  15
ENDBRANCH   4  13
BRANCH   7  30
ATOM     30  N   UNL     1     -41.596  46.880  18.078  1.00  0.00    -0.319 N 
ATOM     31  C   UNL     1     -41.033  47.329  19.279  1.00  0.00     0.248 C 
ATOM     32  O   UNL     1     -40.833  48.492  19.612  1.00  0.00    -0.270 OA
ATOM     33  H   UNL     1     -41.694  45.874  17.952  1.00  0.00     0.170 HD
BRANCH  31  34
ATOM     34  C   UNL     1     -40.672  46.192  20.176  1.00  0.00     0.068 C 
ATOM     35  C   UNL     1     -41.434  45.090  20.220  1.00  0.00    -0.006 C 
BRANCH  35  36
ATOM     36  C   UNL     1     -41.123  43.910  21.090  1.00  0.00     0.111 C 
BRANCH  36  37
ATOM     37  N   UNL     1     -42.205  43.638  22.030  1.00  0.00    -0.306 NA
ATOM     38  C   UNL     1     -43.472  43.464  21.319  1.00  0.00     0.105 C 
ATOM     39  C   UNL     1     -42.318  44.716  23.012  1.00  0.00     0.105 C 
ENDBRANCH  36  37
ENDBRANCH  35  36
ENDBRANCH  31  34
ENDBRANCH   7  30
BRANCH   8  40
ATOM     40  O   UNL     1     -44.334  47.344  17.667  1.00  0.00    -0.492 OA
BRANCH  40  41
ATOM     41  C   UNL     1     -44.972  46.133  17.268  1.00  0.00     0.226 C 
ATOM     42  C   UNL     1     -45.547  45.452  18.492  1.00  0.00     0.049 C 
ENDBRANCH  40  41
ENDBRANCH   8  40
TORSDOF 11
ENDMDL
MODEL 4
REMARK VINA RESULT:    -8.576      2.343      3.231
REMARK INTER + INTRA:         -15.825
REMARK INTER:                 -14.197
REMARK INTRA:                  -1.627
REMARK UNBOUND:                -1.734
REMARK SMILES CCOc1cc2ncc(C#N)c(Nc3ccc(OCc4ccccn4)c(Cl)c3)c2cc1NC(=O)/C=C/CN(C)C
REMARK SMILES IDX 7 1 11 2 29 3 12 4 6 5 30 6 31 7 4 8 5 9 9 10 8 11 10 12
REMARK SMILES IDX 13 13 14 15 26 16 28 17 17 18 16 19 15 20 27 21 18 22 19 23
REMARK SMILES IDX 20 24 25 25 21 26 24 27 22 28 23 29 32 30 33 31 34 32 35 34
REMARK SMILES IDX 36 35 37 36 38 37 39 38 40 39 3 40 2 41 1 42
REMARK H PARENT 13 14 32 33
ROOT
ATOM      1  N   UNL     1     -44.962  46.422  15.368  1.00  0.00    -0.255 NA
ATOM      2  N   UNL     1     -43.859  50.254  12.688  1.00  0.00    -0.192 NA
ATOM      3  C   UNL     1     -43.195  47.471  16.625  1.00  0.00     0.027 A 
ATOM      4  C   UNL     1     -43.105  48.474  15.652  1.00  0.00     0.068 A 
ATOM      5  C   UNL     1     -44.150  46.450  16.442  1.00  0.00     0.076 A 
ATOM      6  C   UNL     1     -42.363  47.470  17.759  1.00  0.00     0.042 A 
ATOM      7  C   UNL     1     -42.472  46.460  18.711  1.00  0.00     0.084 A 
ATOM      8  C   UNL     1     -43.412  45.451  18.536  1.00  0.00     0.144 A 
ATOM      9  C   UNL     1     -44.239  45.454  17.410  1.00  0.00     0.077 A 
ATOM     10  C   UNL     1     -43.941  48.449  14.544  1.00  0.00     0.094 A 
ATOM     11  C   UNL     1     -44.845  47.410  14.452  1.00  0.00     0.133 A 
ATOM     12  C   UNL     1     -43.896  49.445  13.519  1.00  0.00     0.103 C 
ENDROOT
BRANCH   4  13
ATOM     13  N   UNL     1     -42.163  49.528  15.781  1.00  0.00    -0.354 N 
ATOM     14  H   UNL     1     -42.575  50.379  16.153  1.00  0.00     0.167 HD
BRANCH  13  15
ATOM     15  C   UNL     1     -40.791  49.609  15.502  1.00  0.00     0.040 A 
ATOM     16  C   UNL     1     -38.525  48.833  15.863  1.00  0.00     0.085 A 
ATOM     17  C   UNL     1     -39.889  48.752  16.141  1.00  0.00     0.050 A 
ATOM     18  C   UNL     1     -38.055  49.771  14.943  1.00  0.00     0.138 A 
ATOM     19  C   UNL     1     -38.949  50.629  14.304  1.00  0.00     0.050 A 
ATOM     20  C   UNL     1     -40.313  50.548  14.582  1.00  0.00     0.030 A 
ATOM     21  Cl  UNL     1     -37.441  47.759  16.668  1.00  0.00    -0.080 Cl
BRANCH  18  22
ATOM     22  O   UNL     1     -36.727  49.872  14.652  1.00  0.00    -0.486 OA
BRANCH  22  23
ATOM     23  C   UNL     1     -36.284  51.094  14.065  1.00  0.00     0.285 C 
BRANCH  23  24
ATOM     24  C   UNL     1     -35.094  51.599  14.827  1.00  0.00     0.078 A 
ATOM     25  N   UNL     1     -33.943  51.708  14.133  1.00  0.00    -0.258 NA
ATOM     26  C   UNL     1     -35.238  51.917  16.163  1.00  0.00     0.027 A 
ATOM     27  C   UNL     1     -32.874  52.164  14.824  1.00  0.00     0.111 A 
ATOM     28  C   UNL     1     -34.117  52.383  16.840  1.00  0.00     0.004 A 
ATOM     29  C   UNL     1     -32.908  52.511  16.164  1.00  0.00     0.020 A 
ENDBRANCH  23  24
ENDBRANCH  22  23
ENDBRANCH  18  22
ENDBRANCH  13  15
ENDBRANCH   4  13
BRANCH   7  30
ATOM     30  N   UNL     1     -41.637  46.474  19.830  1.00  0.00    -0.319 N 
ATOM     31  C   UNL     1     -41.978  46.763  21.158  1.00  0.00     0.248 C 
ATOM     32  O   UNL     1     -43.087  47.061  21.588  1.00  0.00    -0.270 OA
ATOM     33  H   UNL     1     -40.664  46.244  19.635  1.00  0.00     0.170 HD
BRANCH  31  34
ATOM     34  C   UNL     1     -40.794  46.671  22.063  1.00  0.00     0.068 C 
ATOM     35  C   UNL     1     -39.644  46.137  21.628  1.00  0.00    -0.006 C 
BRANCH  35  36
ATOM     36  C   UNL     1     -38.417  46.023  22.480  1.00  0.00     0.111 C 
BRANCH  36  37
ATOM     37  N   UNL     1     -37.297  46.765  21.909  1.00  0.00    -0.306 NA
ATOM     38  C   UNL     1     -37.577  47.127  20.520  1.00  0.00     0.105 C 
ATOM     39  C   UNL     1     -36.064  45.981  21.993  1.00  0.00     0.105 C 
ENDBRANCH  36  37
ENDBRANCH  35  36
ENDBRANCH  31  34
ENDBRANCH   7  30
BRANCH   8  40
ATOM     40  O   UNL     1     -43.543  44.449  19.450  1.00  0.00    -0.492 OA
BRANCH  40  41
ATOM     41  C   UNL     1     -42.723  43.297  19.269  1.00  0.00     0.226 C 
ATOM     42  C   UNL     1     -42.223  42.829  20.619  1.00  0.00     0.049 C 
ENDBRANCH  40  41
ENDBRANCH   8  40
TORSDOF 11
ENDMDL
MODEL 5
REMARK VINA RESULT:    -8.560      3.688      7.669
REMARK INTER + INTRA:         -15.799
REMARK INTER:                 -14.324
REMARK INTRA:                  -1.476
REMARK UNBOUND:                -1.734
REMARK SMILES CCOc1cc2ncc(C#N)c(Nc3ccc(OCc4ccccn4)c(Cl)c3)c2cc1NC(=O)/C=C/CN(C)C
REMARK SMILES IDX 7 1 11 2 29 3 12 4 6 5 30 6 31 7 4 8 5 9 9 10 8 11 10 12
REMARK SMILES IDX 13 13 14 15 26 16 28 17 17 18 16 19 15 20 27 21 18 22 19 23
REMARK SMILES IDX 20 24 25 25 21 26 24 27 22 28 23 29 32 30 33 31 34 32 35 34
REMARK SMILES IDX 36 35 37 36 38 37 39 38 40 39 3 40 2 41 1 42
REMARK H PARENT 13 14 32 33
ROOT
ATOM      1  N   UNL     1     -43.190  45.686  19.337  1.00  0.00    -0.255 NA
ATOM      2  N   UNL     1     -38.419  45.224  19.670  1.00  0.00    -0.192 NA
ATOM      3  C   UNL     1     -42.412  46.569  17.234  1.00  0.00     0.027 A 
ATOM      4  C   UNL     1     -41.091  46.311  17.621  1.00  0.00     0.068 A 
ATOM      5  C   UNL     1     -43.446  46.236  18.135  1.00  0.00     0.076 A 
ATOM      6  C   UNL     1     -42.715  47.142  15.986  1.00  0.00     0.042 A 
ATOM      7  C   UNL     1     -44.038  47.388  15.627  1.00  0.00     0.084 A 
ATOM      8  C   UNL     1     -45.060  47.062  16.510  1.00  0.00     0.144 A 
ATOM      9  C   UNL     1     -44.758  46.493  17.750  1.00  0.00     0.077 A 
ATOM     10  C   UNL     1     -40.824  45.743  18.859  1.00  0.00     0.094 A 
ATOM     11  C   UNL     1     -41.900  45.452  19.672  1.00  0.00     0.133 A 
ATOM     12  C   UNL     1     -39.496  45.457  19.307  1.00  0.00     0.103 C 
ENDROOT
BRANCH   4  13
ATOM     13  N   UNL     1     -40.008  46.623  16.757  1.00  0.00    -0.354 N 
ATOM     14  H   UNL     1     -39.674  45.816  16.239  1.00  0.00     0.167 HD
BRANCH  13  15
ATOM     15  C   UNL     1     -39.332  47.822  16.486  1.00  0.00     0.040 A 
ATOM     16  C   UNL     1     -39.147  49.895  15.248  1.00  0.00     0.085 A 
ATOM     17  C   UNL     1     -39.821  48.704  15.517  1.00  0.00     0.050 A 
ATOM     18  C   UNL     1     -37.981  50.211  15.946  1.00  0.00     0.138 A 
ATOM     19  C   UNL     1     -37.489  49.335  16.913  1.00  0.00     0.050 A 
ATOM     20  C   UNL     1     -38.162  48.143  17.181  1.00  0.00     0.030 A 
ATOM     21  Cl  UNL     1     -39.779  50.961  14.047  1.00  0.00    -0.080 Cl
BRANCH  18  22
ATOM     22  O   UNL     1     -37.303  51.369  15.703  1.00  0.00    -0.486 OA
BRANCH  22  23
ATOM     23  C   UNL     1     -36.354  51.351  14.639  1.00  0.00     0.285 C 
BRANCH  23  24
ATOM     24  C   UNL     1     -35.019  51.785  15.168  1.00  0.00     0.078 A 
ATOM     25  N   UNL     1     -33.993  51.766  14.292  1.00  0.00    -0.258 NA
ATOM     26  C   UNL     1     -34.914  52.174  16.490  1.00  0.00     0.027 A 
ATOM     27  C   UNL     1     -32.793  52.158  14.774  1.00  0.00     0.111 A 
ATOM     28  C   UNL     1     -33.664  52.572  16.949  1.00  0.00     0.004 A 
ATOM     29  C   UNL     1     -32.578  52.566  16.080  1.00  0.00     0.020 A 
ENDBRANCH  23  24
ENDBRANCH  22  23
ENDBRANCH  18  22
ENDBRANCH  13  15
ENDBRANCH   4  13
BRANCH   7  30
ATOM     30  N   UNL     1     -44.320  47.959  14.384  1.00  0.00    -0.319 N 
ATOM     31  C   UNL     1     -43.802  49.142  13.841  1.00  0.00     0.248 C 
ATOM     32  O   UNL     1     -42.998  49.905  14.363  1.00  0.00    -0.270 OA
ATOM     33  H   UNL     1     -44.985  47.435  13.819  1.00  0.00     0.170 HD
BRANCH  31  34
ATOM     34  C   UNL     1     -44.355  49.411  12.480  1.00  0.00     0.068 C 
ATOM     35  C   UNL     1     -45.521  50.057  12.335  1.00  0.00    -0.006 C 
BRANCH  35  36
ATOM     36  C   UNL     1     -46.127  50.367  11.000  1.00  0.00     0.111 C 
BRANCH  36  37
ATOM     37  N   UNL     1     -47.475  50.907  11.135  1.00  0.00    -0.306 NA
ATOM     38  C   UNL     1     -48.443  49.829  11.341  1.00  0.00     0.105 C 
ATOM     39  C   UNL     1     -47.835  51.696   9.956  1.00  0.00     0.105 C 
ENDBRANCH  36  37
ENDBRANCH  35  36
ENDBRANCH  31  34
ENDBRANCH   7  30
BRANCH   8  40
ATOM     40  O   UNL     1     -46.365  47.292  16.188  1.00  0.00    -0.492 OA
BRANCH  40  41
ATOM     41  C   UNL     1     -47.098  46.198  15.643  1.00  0.00     0.226 C 
ATOM     42  C   UNL     1     -48.537  46.289  16.108  1.00  0.00     0.049 C 
ENDBRANCH  40  41
ENDBRANCH   8  40
TORSDOF 11
ENDMDL
MODEL 6
REMARK VINA RESULT:    -8.202      3.642      7.715
REMARK INTER + INTRA:         -15.211
REMARK INTER:                 -13.619
REMARK INTRA:                  -1.592
REMARK UNBOUND:                -1.734
REMARK SMILES CCOc1cc2ncc(C#N)c(Nc3ccc(OCc4ccccn4)c(Cl)c3)c2cc1NC(=O)/C=C/CN(C)C
REMARK SMILES IDX 7 1 11 2 29 3 12 4 6 5 30 6 31 7 4 8 5 9 9 10 8 11 10 12
REMARK SMILES IDX 13 13 14 15 26 16 28 17 17 18 16 19 15 20 27 21 18 22 19 23
REMARK SMILES IDX 20 24 25 25 21 26 24 27 22 28 23 29 32 30 33 31 34 32 35 34
REMARK SMILES IDX 36 35 37 36 38 37 39 38 40 39 3 40 2 41 1 42
REMARK H PARENT 13 14 32 33
ROOT
ATOM      1  N   UNL     1     -42.395  47.014  21.819  1.00  0.00    -0.255 NA
ATOM      2  N   UNL     1     -37.741  47.696  20.838  1.00  0.00    -0.192 NA
ATOM      3  C   UNL     1     -42.258  46.508  19.467  1.00  0.00     0.027 A 
ATOM      4  C   UNL     1     -40.884  46.782  19.494  1.00  0.00     0.068 A 
ATOM      5  C   UNL     1     -42.985  46.638  20.668  1.00  0.00     0.076 A 
ATOM      6  C   UNL     1     -42.906  46.114  18.283  1.00  0.00     0.042 A 
ATOM      7  C   UNL     1     -44.273  45.848  18.284  1.00  0.00     0.084 A 
ATOM      8  C   UNL     1     -44.995  45.974  19.465  1.00  0.00     0.144 A 
ATOM      9  C   UNL     1     -44.350  46.366  20.641  1.00  0.00     0.077 A 
ATOM     10  C   UNL     1     -40.273  47.169  20.678  1.00  0.00     0.094 A 
ATOM     11  C   UNL     1     -41.067  47.268  21.803  1.00  0.00     0.133 A 
ATOM     12  C   UNL     1     -38.875  47.460  20.767  1.00  0.00     0.103 C 
ENDROOT
BRANCH   4  13
ATOM     13  N   UNL     1     -40.099  46.669  18.317  1.00  0.00    -0.354 N 
ATOM     14  H   UNL     1     -39.830  45.710  18.116  1.00  0.00     0.167 HD
BRANCH  13  15
ATOM     15  C   UNL     1     -39.640  47.618  17.393  1.00  0.00     0.040 A 
ATOM     16  C   UNL     1     -40.089  49.274  15.683  1.00  0.00     0.085 A 
ATOM     17  C   UNL     1     -40.547  48.330  16.602  1.00  0.00     0.050 A 
ATOM     18  C   UNL     1     -38.721  49.512  15.549  1.00  0.00     0.138 A 
ATOM     19  C   UNL     1     -37.811  48.804  16.334  1.00  0.00     0.050 A 
ATOM     20  C   UNL     1     -38.269  47.860  17.253  1.00  0.00     0.030 A 
ATOM     21  Cl  UNL     1     -41.237  50.135  14.725  1.00  0.00    -0.080 Cl
BRANCH  18  22
ATOM     22  O   UNL     1     -38.246  50.429  14.659  1.00  0.00    -0.486 OA
BRANCH  22  23
ATOM     23  C   UNL     1     -36.864  50.341  14.317  1.00  0.00     0.285 C 
BRANCH  23  24
ATOM     24  C   UNL     1     -36.161  51.573  14.805  1.00  0.00     0.078 A 
ATOM     25  N   UNL     1     -34.826  51.475  14.969  1.00  0.00    -0.258 NA
ATOM     26  C   UNL     1     -36.900  52.714  15.053  1.00  0.00     0.027 A 
ATOM     27  C   UNL     1     -34.198  52.588  15.408  1.00  0.00     0.111 A 
ATOM     28  C   UNL     1     -36.219  53.839  15.504  1.00  0.00     0.004 A 
ATOM     29  C   UNL     1     -34.841  53.783  15.687  1.00  0.00     0.020 A 
ENDBRANCH  23  24
ENDBRANCH  22  23
ENDBRANCH  18  22
ENDBRANCH  13  15
ENDBRANCH   4  13
BRANCH   7  30
ATOM     30  N   UNL     1     -44.900  45.459  17.099  1.00  0.00    -0.319 N 
ATOM     31  C   UNL     1     -45.124  46.227  15.949  1.00  0.00     0.248 C 
ATOM     32  O   UNL     1     -44.809  47.398  15.769  1.00  0.00    -0.270 OA
ATOM     33  H   UNL     1     -45.226  44.494  17.090  1.00  0.00     0.170 HD
BRANCH  31  34
ATOM     34  C   UNL     1     -45.830  45.442  14.892  1.00  0.00     0.068 C 
ATOM     35  C   UNL     1     -46.432  46.066  13.869  1.00  0.00    -0.006 C 
BRANCH  35  36
ATOM     36  C   UNL     1     -47.149  45.339  12.772  1.00  0.00     0.111 C 
BRANCH  36  37
ATOM     37  N   UNL     1     -48.122  46.198  12.107  1.00  0.00    -0.306 NA
ATOM     38  C   UNL     1     -48.720  45.508  10.963  1.00  0.00     0.105 C 
ATOM     39  C   UNL     1     -47.496  47.448  11.676  1.00  0.00     0.105 C 
ENDBRANCH  36  37
ENDBRANCH  35  36
ENDBRANCH  31  34
ENDBRANCH   7  30
BRANCH   8  40
ATOM     40  O   UNL     1     -46.334  45.722  19.497  1.00  0.00    -0.492 OA
BRANCH  40  41
ATOM     41  C   UNL     1     -46.793  44.789  20.471  1.00  0.00     0.226 C 
ATOM     42  C   UNL     1     -46.180  43.434  20.184  1.00  0.00     0.049 C 
ENDBRANCH  40  41
ENDBRANCH   8  40
TORSDOF 11
ENDMDL
MODEL 7
REMARK VINA RESULT:    -8.132      3.341      6.989
REMARK INTER + INTRA:         -15.095
REMARK INTER:                 -15.104
REMARK INTRA:                   0.009
REMARK UNBOUND:                -1.734
REMARK SMILES CCOc1cc2ncc(C#N)c(Nc3ccc(OCc4ccccn4)c(Cl)c3)c2cc1NC(=O)/C=C/CN(C)C
REMARK SMILES IDX 7 1 11 2 29 3 12 4 6 5 30 6 31 7 4 8 5 9 9 10 8 11 10 12
REMARK SMILES IDX 13 13 14 15 26 16 28 17 17 18 16 19 15 20 27 21 18 22 19 23
REMARK SMILES IDX 20 24 25 25 21 26 24 27 22 28 23 29 32 30 33 31 34 32 35 34
REMARK SMILES IDX 36 35 37 36 38 37 39 38 40 39 3 40 2 41 1 42
REMARK H PARENT 13 14 32 33
ROOT
ATOM      1  N   UNL     1     -40.780  46.609  17.824  1.00  0.00    -0.255 NA
ATOM      2  N   UNL     1     -37.040  49.609  18.132  1.00  0.00    -0.192 NA
ATOM      3  C   UNL     1     -41.261  48.250  16.126  1.00  0.00     0.027 A 
ATOM      4  C   UNL     1     -40.077  48.924  16.451  1.00  0.00     0.068 A 
ATOM      5  C   UNL     1     -41.579  47.080  16.848  1.00  0.00     0.076 A 
ATOM      6  C   UNL     1     -42.118  48.713  15.113  1.00  0.00     0.042 A 
ATOM      7  C   UNL     1     -43.289  48.024  14.811  1.00  0.00     0.084 A 
ATOM      8  C   UNL     1     -43.608  46.871  15.518  1.00  0.00     0.144 A 
ATOM      9  C   UNL     1     -42.755  46.410  16.525  1.00  0.00     0.077 A 
ATOM     10  C   UNL     1     -39.251  48.440  17.456  1.00  0.00     0.094 A 
ATOM     11  C   UNL     1     -39.645  47.288  18.106  1.00  0.00     0.133 A 
ATOM     12  C   UNL     1     -38.031  49.085  17.830  1.00  0.00     0.103 C 
ENDROOT
BRANCH   4  13
ATOM     13  N   UNL     1     -39.703  50.106  15.759  1.00  0.00    -0.354 N 
ATOM     14  H   UNL     1     -40.503  50.668  15.482  1.00  0.00     0.167 HD
BRANCH  13  15
ATOM     15  C   UNL     1     -38.455  50.636  15.401  1.00  0.00     0.040 A 
ATOM     16  C   UNL     1     -36.941  52.519  15.240  1.00  0.00     0.085 A 
ATOM     17  C   UNL     1     -38.182  51.994  15.597  1.00  0.00     0.050 A 
ATOM     18  C   UNL     1     -35.965  51.691  14.685  1.00  0.00     0.138 A 
ATOM     19  C   UNL     1     -36.232  50.336  14.487  1.00  0.00     0.050 A 
ATOM     20  C   UNL     1     -37.473  49.811  14.843  1.00  0.00     0.030 A 
ATOM     21  Cl  UNL     1     -36.638  54.199  15.496  1.00  0.00    -0.080 Cl
BRANCH  18  22
ATOM     22  O   UNL     1     -34.743  52.178  14.328  1.00  0.00    -0.486 OA
BRANCH  22  23
ATOM     23  C   UNL     1     -33.728  52.177  15.330  1.00  0.00     0.285 C 
BRANCH  23  24
ATOM     24  C   UNL     1     -32.385  52.116  14.666  1.00  0.00     0.078 A 
ATOM     25  N   UNL     1     -32.357  51.604  13.418  1.00  0.00    -0.258 NA
ATOM     26  C   UNL     1     -31.276  52.576  15.350  1.00  0.00     0.027 A 
ATOM     27  C   UNL     1     -31.144  51.551  12.825  1.00  0.00     0.111 A 
ATOM     28  C   UNL     1     -30.046  52.506  14.706  1.00  0.00     0.004 A 
ATOM     29  C   UNL     1     -29.971  51.985  13.419  1.00  0.00     0.020 A 
ENDBRANCH  23  24
ENDBRANCH  22  23
ENDBRANCH  18  22
ENDBRANCH  13  15
ENDBRANCH   4  13
BRANCH   7  30
ATOM     30  N   UNL     1     -44.129  48.500  13.802  1.00  0.00    -0.319 N 
ATOM     31  C   UNL     1     -43.904  49.572  12.927  1.00  0.00     0.248 C 
ATOM     32  O   UNL     1     -42.919  50.299  12.887  1.00  0.00    -0.270 OA
ATOM     33  H   UNL     1     -45.006  47.992  13.706  1.00  0.00     0.170 HD
BRANCH  31  34
ATOM     34  C   UNL     1     -45.049  49.764  11.988  1.00  0.00     0.068 C 
ATOM     35  C   UNL     1     -46.290  49.404  12.344  1.00  0.00    -0.006 C 
BRANCH  35  36
ATOM     36  C   UNL     1     -47.484  49.578  11.454  1.00  0.00     0.111 C 
BRANCH  36  37
ATOM     37  N   UNL     1     -48.381  48.430  11.530  1.00  0.00    -0.306 NA
ATOM     38  C   UNL     1     -49.720  48.793  11.065  1.00  0.00     0.105 C 
ATOM     39  C   UNL     1     -48.440  47.912  12.897  1.00  0.00     0.105 C 
ENDBRANCH  36  37
ENDBRANCH  35  36
ENDBRANCH  31  34
ENDBRANCH   7  30
BRANCH   8  40
ATOM     40  O   UNL     1     -44.748  46.175  15.247  1.00  0.00    -0.492 OA
BRANCH  40  41
ATOM     41  C   UNL     1     -45.712  46.078  16.292  1.00  0.00     0.226 C 
ATOM     42  C   UNL     1     -46.634  47.277  16.225  1.00  0.00     0.049 C 
ENDBRANCH  40  41
ENDBRANCH   8  40
TORSDOF 11
ENDMDL
MODEL 8
REMARK VINA RESULT:    -8.087      3.479      8.227
REMARK INTER + INTRA:         -15.021
REMARK INTER:                 -13.250
REMARK INTRA:                  -1.771
REMARK UNBOUND:                -1.734
REMARK SMILES CCOc1cc2ncc(C#N)c(Nc3ccc(OCc4ccccn4)c(Cl)c3)c2cc1NC(=O)/C=C/CN(C)C
REMARK SMILES IDX 7 1 11 2 29 3 12 4 6 5 30 6 31 7 4 8 5 9 9 10 8 11 10 12
REMARK SMILES IDX 13 13 14 15 26 16 28 17 17 18 16 19 15 20 27 21 18 22 19 23
REMARK SMILES IDX 20 24 25 25 21 26 24 27 22 28 23 29 32 30 33 31 34 32 35 34
REMARK SMILES IDX 36 35 37 36 38 37 39 38 40 39 3 40 2 41 1 42
REMARK H PARENT 13 14 32 33
ROOT
ATOM      1  N   UNL     1     -44.673  47.518  14.277  1.00  0.00    -0.255 NA
ATOM      2  N   UNL     1     -47.038  46.102  18.213  1.00  0.00    -0.192 NA
ATOM      3  C   UNL     1     -43.157  48.098  16.057  1.00  0.00     0.027 A 
ATOM      4  C   UNL     1     -44.072  47.597  16.993  1.00  0.00     0.068 A 
ATOM      5  C   UNL     1     -43.503  48.038  14.691  1.00  0.00     0.076 A 
ATOM      6  C   UNL     1     -41.926  48.649  16.455  1.00  0.00     0.042 A 
ATOM      7  C   UNL     1     -41.035  49.141  15.505  1.00  0.00     0.084 A 
ATOM      8  C   UNL     1     -41.370  49.085  14.157  1.00  0.00     0.144 A 
ATOM      9  C   UNL     1     -42.594  48.537  13.763  1.00  0.00     0.077 A 
ATOM     10  C   UNL     1     -45.279  47.058  16.569  1.00  0.00     0.094 A 
ATOM     11  C   UNL     1     -45.528  47.043  15.211  1.00  0.00     0.133 A 
ATOM     12  C   UNL     1     -46.250  46.531  17.476  1.00  0.00     0.103 C 
ENDROOT
BRANCH   4  13
ATOM     13  N   UNL     1     -43.780  47.629  18.381  1.00  0.00    -0.354 N 
ATOM     14  H   UNL     1     -44.395  48.251  18.897  1.00  0.00     0.167 HD
BRANCH  13  15
ATOM     15  C   UNL     1     -42.820  46.966  19.160  1.00  0.00     0.040 A 
ATOM     16  C   UNL     1     -41.913  44.918  20.081  1.00  0.00     0.085 A 
ATOM     17  C   UNL     1     -42.868  45.576  19.306  1.00  0.00     0.050 A 
ATOM     18  C   UNL     1     -40.905  45.646  20.715  1.00  0.00     0.138 A 
ATOM     19  C   UNL     1     -40.854  47.033  20.574  1.00  0.00     0.050 A 
ATOM     20  C   UNL     1     -41.808  47.691  19.799  1.00  0.00     0.030 A 
ATOM     21  Cl  UNL     1     -42.000  43.202  20.239  1.00  0.00    -0.080 Cl
BRANCH  18  22
ATOM     22  O   UNL     1     -39.959  45.028  21.478  1.00  0.00    -0.486 OA
BRANCH  22  23
ATOM     23  C   UNL     1     -39.421  45.774  22.568  1.00  0.00     0.285 C 
BRANCH  23  24
ATOM     24  C   UNL     1     -37.943  45.934  22.367  1.00  0.00     0.078 A 
ATOM     25  N   UNL     1     -37.224  44.797  22.271  1.00  0.00    -0.258 NA
ATOM     26  C   UNL     1     -37.410  47.207  22.292  1.00  0.00     0.027 A 
ATOM     27  C   UNL     1     -35.894  44.948  22.090  1.00  0.00     0.111 A 
ATOM     28  C   UNL     1     -36.037  47.322  22.104  1.00  0.00     0.004 A 
ATOM     29  C   UNL     1     -35.258  46.175  22.000  1.00  0.00     0.020 A 
ENDBRANCH  23  24
ENDBRANCH  22  23
ENDBRANCH  18  22
ENDBRANCH  13  15
ENDBRANCH   4  13
BRANCH   7  30
ATOM     30  N   UNL     1     -39.817  49.685  15.918  1.00  0.00    -0.319 N 
ATOM     31  C   UNL     1     -38.626  49.008  16.212  1.00  0.00     0.248 C 
ATOM     32  O   UNL     1     -38.431  47.799  16.162  1.00  0.00    -0.270 OA
ATOM     33  H   UNL     1     -39.816  50.699  16.010  1.00  0.00     0.170 HD
BRANCH  31  34
ATOM     34  C   UNL     1     -37.544  49.952  16.622  1.00  0.00     0.068 C 
ATOM     35  C   UNL     1     -36.826  50.606  15.698  1.00  0.00    -0.006 C 
BRANCH  35  36
ATOM     36  C   UNL     1     -35.733  51.574  16.041  1.00  0.00     0.111 C 
BRANCH  36  37
ATOM     37  N   UNL     1     -35.865  52.819  15.292  1.00  0.00    -0.306 NA
ATOM     38  C   UNL     1     -34.758  53.723  15.601  1.00  0.00     0.105 C 
ATOM     39  C   UNL     1     -37.146  53.463  15.586  1.00  0.00     0.105 C 
ENDBRANCH  36  37
ENDBRANCH  35  36
ENDBRANCH  31  34
ENDBRANCH   7  30
BRANCH   8  40
ATOM     40  O   UNL     1     -40.520  49.559  13.203  1.00  0.00    -0.492 OA
BRANCH  40  41
ATOM     41  C   UNL     1     -41.102  50.271  12.114  1.00  0.00     0.226 C 
ATOM     42  C   UNL     1     -40.155  51.371  11.682  1.00  0.00     0.049 C 
ENDBRANCH  40  41
ENDBRANCH   8  40
TORSDOF 11
ENDMDL
MODEL 9
REMARK VINA RESULT:    -8.067      3.419      8.482
REMARK INTER + INTRA:         -14.989
REMARK INTER:                 -13.464
REMARK INTRA:                  -1.525
REMARK UNBOUND:                -1.734
REMARK SMILES CCOc1cc2ncc(C#N)c(Nc3ccc(OCc4ccccn4)c(Cl)c3)c2cc1NC(=O)/C=C/CN(C)C
REMARK SMILES IDX 7 1 11 2 29 3 12 4 6 5 30 6 31 7 4 8 5 9 9 10 8 11 10 12
REMARK SMILES IDX 13 13 14 15 26 16 28 17 17 18 16 19 15 20 27 21 18 22 19 23
REMARK SMILES IDX 20 24 25 25 21 26 24 27 22 28 23 29 32 30 33 31 34 32 35 34
REMARK SMILES IDX 36 35 37 36 38 37 39 38 40 39 3 40 2 41 1 42
REMARK H PARENT 13 14 32 33
ROOT
ATOM      1  N   UNL     1     -40.038  44.613  23.012  1.00  0.00    -0.255 NA
ATOM      2  N   UNL     1     -43.899  42.213  21.457  1.00  0.00    -0.192 NA
ATOM      3  C   UNL     1     -40.072  45.113  20.656  1.00  0.00     0.027 A 
ATOM      4  C   UNL     1     -41.222  44.326  20.511  1.00  0.00     0.068 A 
ATOM      5  C   UNL     1     -39.505  45.231  21.942  1.00  0.00     0.076 A 
ATOM      6  C   UNL     1     -39.490  45.772  19.559  1.00  0.00     0.042 A 
ATOM      7  C   UNL     1     -38.346  46.548  19.731  1.00  0.00     0.084 A 
ATOM      8  C   UNL     1     -37.782  46.668  20.995  1.00  0.00     0.144 A 
ATOM      9  C   UNL     1     -38.362  46.013  22.084  1.00  0.00     0.077 A 
ATOM     10  C   UNL     1     -41.775  43.688  21.614  1.00  0.00     0.094 A 
ATOM     11  C   UNL     1     -41.149  43.864  22.831  1.00  0.00     0.133 A 
ATOM     12  C   UNL     1     -42.947  42.874  21.527  1.00  0.00     0.103 C 
ENDROOT
BRANCH   4  13
ATOM     13  N   UNL     1     -41.839  44.169  19.243  1.00  0.00    -0.354 N 
ATOM     14  H   UNL     1     -42.019  43.197  19.011  1.00  0.00     0.167 HD
BRANCH  13  15
ATOM     15  C   UNL     1     -42.245  45.094  18.270  1.00  0.00     0.040 A 
ATOM     16  C   UNL     1     -43.995  46.373  17.189  1.00  0.00     0.085 A 
ATOM     17  C   UNL     1     -43.592  45.454  18.157  1.00  0.00     0.050 A 
ATOM     18  C   UNL     1     -43.054  46.939  16.328  1.00  0.00     0.138 A 
ATOM     19  C   UNL     1     -41.710  46.583  16.435  1.00  0.00     0.050 A 
ATOM     20  C   UNL     1     -41.307  45.663  17.403  1.00  0.00     0.030 A 
ATOM     21  Cl  UNL     1     -45.665  46.795  17.079  1.00  0.00    -0.080 Cl
BRANCH  18  22
ATOM     22  O   UNL     1     -43.420  47.841  15.373  1.00  0.00    -0.486 OA
BRANCH  22  23
ATOM     23  C   UNL     1     -43.141  49.213  15.640  1.00  0.00     0.285 C 
BRANCH  23  24
ATOM     24  C   UNL     1     -42.163  49.720  14.622  1.00  0.00     0.078 A 
ATOM     25  N   UNL     1     -42.642  49.911  13.376  1.00  0.00    -0.258 NA
ATOM     26  C   UNL     1     -40.857  49.959  15.005  1.00  0.00     0.027 A 
ATOM     27  C   UNL     1     -41.757  50.368  12.462  1.00  0.00     0.111 A 
ATOM     28  C   UNL     1     -39.976  50.429  14.038  1.00  0.00     0.004 A 
ATOM     29  C   UNL     1     -40.427  50.640  12.740  1.00  0.00     0.020 A 
ENDBRANCH  23  24
ENDBRANCH  22  23
ENDBRANCH  18  22
ENDBRANCH  13  15
ENDBRANCH   4  13
BRANCH   7  30
ATOM     30  N   UNL     1     -37.781  47.194  18.629  1.00  0.00    -0.319 N 
ATOM     31  C   UNL     1     -38.326  48.236  17.867  1.00  0.00     0.248 C 
ATOM     32  O   UNL     1     -39.414  48.777  18.027  1.00  0.00    -0.270 OA
ATOM     33  H   UNL     1     -36.859  46.852  18.365  1.00  0.00     0.170 HD
BRANCH  31  34
ATOM     34  C   UNL     1     -37.405  48.654  16.769  1.00  0.00     0.068 C 
ATOM     35  C   UNL     1     -37.201  49.953  16.509  1.00  0.00    -0.006 C 
BRANCH  35  36
ATOM     36  C   UNL     1     -36.284  50.441  15.429  1.00  0.00     0.111 C 
BRANCH  36  37
ATOM     37  N   UNL     1     -36.341  51.892  15.292  1.00  0.00    -0.306 NA
ATOM     38  C   UNL     1     -35.136  52.508  15.848  1.00  0.00     0.105 C 
ATOM     39  C   UNL     1     -37.534  52.425  15.950  1.00  0.00     0.105 C 
ENDBRANCH  36  37
ENDBRANCH  35  36
ENDBRANCH  31  34
ENDBRANCH   7  30
BRANCH   8  40
ATOM     40  O   UNL     1     -36.663  47.420  21.194  1.00  0.00    -0.492 OA
BRANCH  40  41
ATOM     41  C   UNL     1     -35.817  47.044  22.279  1.00  0.00     0.226 C 
ATOM     42  C   UNL     1     -34.647  46.248  21.739  1.00  0.00     0.049 C 
ENDBRANCH  40  41
ENDBRANCH   8  40
TORSDOF 11
ENDMDL
MODEL 10
REMARK VINA RESULT:    -8.062      4.509      9.573
REMARK INTER + INTRA:         -14.981
REMARK INTER:                 -13.060
REMARK INTRA:                  -1.922
REMARK UNBOUND:                -1.734
REMARK SMILES CCOc1cc2ncc(C#N)c(Nc3ccc(OCc4ccccn4)c(Cl)c3)c2cc1NC(=O)/C=C/CN(C)C
REMARK SMILES IDX 7 1 11 2 29 3 12 4 6 5 30 6 31 7 4 8 5 9 9 10 8 11 10 12
REMARK SMILES IDX 13 13 14 15 26 16 28 17 17 18 16 19 15 20 27 21 18 22 19 23
REMARK SMILES IDX 20 24 25 25 21 26 24 27 22 28 23 29 32 30 33 31 34 32 35 34
REMARK SMILES IDX 36 35 37 36 38 37 39 38 40 39 3 40 2 41 1 42
REMARK H PARENT 13 14 32 33
ROOT
ATOM      1  N   UNL     1     -38.442  50.487  15.875  1.00  0.00    -0.255 NA
ATOM      2  N   UNL     1     -40.741  51.288  11.733  1.00  0.00    -0.192 NA
ATOM      3  C   UNL     1     -39.925  48.596  15.705  1.00  0.00     0.027 A 
ATOM      4  C   UNL     1     -40.412  49.094  14.489  1.00  0.00     0.068 A 
ATOM      5  C   UNL     1     -38.927  49.334  16.374  1.00  0.00     0.076 A 
ATOM      6  C   UNL     1     -40.409  47.396  16.254  1.00  0.00     0.042 A 
ATOM      7  C   UNL     1     -39.909  46.924  17.465  1.00  0.00     0.084 A 
ATOM      8  C   UNL     1     -38.925  47.646  18.129  1.00  0.00     0.144 A 
ATOM      9  C   UNL     1     -38.444  48.839  17.581  1.00  0.00     0.077 A 
ATOM     10  C   UNL     1     -39.913  50.282  13.972  1.00  0.00     0.094 A 
ATOM     11  C   UNL     1     -38.937  50.933  14.698  1.00  0.00     0.133 A 
ATOM     12  C   UNL     1     -40.370  50.838  12.736  1.00  0.00     0.103 C 
ENDROOT
BRANCH   4  13
ATOM     13  N   UNL     1     -41.416  48.396  13.769  1.00  0.00    -0.354 N 
ATOM     14  H   UNL     1     -41.041  47.856  12.995  1.00  0.00     0.167 HD
BRANCH  13  15
ATOM     15  C   UNL     1     -42.806  48.309  13.932  1.00  0.00     0.040 A 
ATOM     16  C   UNL     1     -44.748  47.195  14.858  1.00  0.00     0.085 A 
ATOM     17  C   UNL     1     -43.365  47.280  14.698  1.00  0.00     0.050 A 
ATOM     18  C   UNL     1     -45.580  48.138  14.253  1.00  0.00     0.138 A 
ATOM     19  C   UNL     1     -45.029  49.165  13.487  1.00  0.00     0.050 A 
ATOM     20  C   UNL     1     -43.646  49.250  13.327  1.00  0.00     0.030 A 
ATOM     21  Cl  UNL     1     -45.402  45.915  15.811  1.00  0.00    -0.080 Cl
BRANCH  18  22
ATOM     22  O   UNL     1     -46.935  48.078  14.394  1.00  0.00    -0.486 OA
BRANCH  22  23
ATOM     23  C   UNL     1     -47.719  48.437  13.258  1.00  0.00     0.285 C 
BRANCH  23  24
ATOM     24  C   UNL     1     -48.151  47.188  12.548  1.00  0.00     0.078 A 
ATOM     25  N   UNL     1     -48.194  47.249  11.201  1.00  0.00    -0.258 NA
ATOM     26  C   UNL     1     -48.472  46.070  13.293  1.00  0.00     0.027 A 
ATOM     27  C   UNL     1     -48.584  46.121  10.568  1.00  0.00     0.111 A 
ATOM     28  C   UNL     1     -48.868  44.928  12.606  1.00  0.00     0.004 A 
ATOM     29  C   UNL     1     -48.927  44.947  11.216  1.00  0.00     0.020 A 
ENDBRANCH  23  24
ENDBRANCH  22  23
ENDBRANCH  18  22
ENDBRANCH  13  15
ENDBRANCH   4  13
BRANCH   7  30
ATOM     30  N   UNL     1     -40.402  45.730  17.996  1.00  0.00    -0.319 N 
ATOM     31  C   UNL     1     -41.694  45.465  18.469  1.00  0.00     0.248 C 
ATOM     32  O   UNL     1     -42.641  46.242  18.506  1.00  0.00    -0.270 OA
ATOM     33  H   UNL     1     -39.723  44.972  18.035  1.00  0.00     0.170 HD
BRANCH  31  34
ATOM     34  C   UNL     1     -41.823  44.061  18.959  1.00  0.00     0.068 C 
ATOM     35  C   UNL     1     -42.140  43.812  20.238  1.00  0.00    -0.006 C 
BRANCH  35  36
ATOM     36  C   UNL     1     -42.294  42.428  20.792  1.00  0.00     0.111 C 
BRANCH  36  37
ATOM     37  N   UNL     1     -43.564  42.270  21.493  1.00  0.00    -0.306 NA
ATOM     38  C   UNL     1     -44.558  41.645  20.620  1.00  0.00     0.105 C 
ATOM     39  C   UNL     1     -44.050  43.564  21.974  1.00  0.00     0.105 C 
ENDBRANCH  36  37
ENDBRANCH  35  36
ENDBRANCH  31  34
ENDBRANCH   7  30
BRANCH   8  40
ATOM     40  O   UNL     1     -38.415  47.211  19.316  1.00  0.00    -0.492 OA
BRANCH  40  41
ATOM     41  C   UNL     1     -38.599  48.057  20.448  1.00  0.00     0.226 C 
ATOM     42  C   UNL     1     -40.018  47.904  20.953  1.00  0.00     0.049 C 
ENDBRANCH  40  41
ENDBRANCH   8  40
TORSDOF 11
ENDMDL
MODEL 11
REMARK VINA RESULT:    -7.990      3.707      9.543
REMARK INTER + INTRA:         -14.862
REMARK INTER:                 -13.190
REMARK INTRA:                  -1.672
REMARK UNBOUND:                -1.734
REMARK SMILES CCOc1cc2ncc(C#N)c(Nc3ccc(OCc4ccccn4)c(Cl)c3)c2cc1NC(=O)/C=C/CN(C)C
REMARK SMILES IDX 7 1 11 2 29 3 12 4 6 5 30 6 31 7 4 8 5 9 9 10 8 11 10 12
REMARK SMILES IDX 13 13 14 15 26 16 28 17 17 18 16 19 15 20 27 21 18 22 19 23
REMARK SMILES IDX 20 24 25 25 21 26 24 27 22 28 23 29 32 30 33 31 34 32 35 34
REMARK SMILES IDX 36 35 37 36 38 37 39 38 40 39 3 40 2 41 1 42
REMARK H PARENT 13 14 32 33
ROOT
ATOM      1  N   UNL     1     -40.116  44.333  22.966  1.00  0.00    -0.255 NA
ATOM      2  N   UNL     1     -43.988  42.180  21.107  1.00  0.00    -0.192 NA
ATOM      3  C   UNL     1     -40.098  45.074  20.674  1.00  0.00     0.027 A 
ATOM      4  C   UNL     1     -41.258  44.328  20.429  1.00  0.00     0.068 A 
ATOM      5  C   UNL     1     -39.552  45.048  21.974  1.00  0.00     0.076 A 
ATOM      6  C   UNL     1     -39.484  45.831  19.661  1.00  0.00     0.042 A 
ATOM      7  C   UNL     1     -38.331  46.563  19.931  1.00  0.00     0.084 A 
ATOM      8  C   UNL     1     -37.788  46.542  21.210  1.00  0.00     0.144 A 
ATOM      9  C   UNL     1     -38.400  45.789  22.216  1.00  0.00     0.077 A 
ATOM     10  C   UNL     1     -41.842  43.591  21.451  1.00  0.00     0.094 A 
ATOM     11  C   UNL     1     -41.236  43.627  22.690  1.00  0.00     0.133 A 
ATOM     12  C   UNL     1     -43.026  42.812  21.261  1.00  0.00     0.103 C 
ENDROOT
BRANCH   4  13
ATOM     13  N   UNL     1     -41.854  44.315  19.141  1.00  0.00    -0.354 N 
ATOM     14  H   UNL     1     -41.788  43.408  18.687  1.00  0.00     0.167 HD
BRANCH  13  15
ATOM     15  C   UNL     1     -42.512  45.303  18.396  1.00  0.00     0.040 A 
ATOM     16  C   UNL     1     -42.484  46.993  16.660  1.00  0.00     0.085 A 
ATOM     17  C   UNL     1     -41.828  46.010  17.401  1.00  0.00     0.050 A 
ATOM     18  C   UNL     1     -43.828  47.275  16.909  1.00  0.00     0.138 A 
ATOM     19  C   UNL     1     -44.515  46.574  17.900  1.00  0.00     0.050 A 
ATOM     20  C   UNL     1     -43.859  45.591  18.641  1.00  0.00     0.030 A 
ATOM     21  Cl  UNL     1     -41.610  47.844  15.441  1.00  0.00    -0.080 Cl
BRANCH  18  22
ATOM     22  O   UNL     1     -44.493  48.230  16.200  1.00  0.00    -0.486 OA
BRANCH  22  23
ATOM     23  C   UNL     1     -45.595  47.795  15.406  1.00  0.00     0.285 C 
BRANCH  23  24
ATOM     24  C   UNL     1     -45.594  48.552  14.111  1.00  0.00     0.078 A 
ATOM     25  N   UNL     1     -46.745  48.539  13.409  1.00  0.00    -0.258 NA
ATOM     26  C   UNL     1     -44.443  49.207  13.718  1.00  0.00     0.027 A 
ATOM     27  C   UNL     1     -46.739  49.223  12.244  1.00  0.00     0.111 A 
ATOM     28  C   UNL     1     -44.475  49.901  12.513  1.00  0.00     0.004 A 
ATOM     29  C   UNL     1     -45.641  49.914  11.756  1.00  0.00     0.020 A 
ENDBRANCH  23  24
ENDBRANCH  22  23
ENDBRANCH  18  22
ENDBRANCH  13  15
ENDBRANCH   4  13
BRANCH   7  30
ATOM     30  N   UNL     1     -37.734  47.310  18.912  1.00  0.00    -0.319 N 
ATOM     31  C   UNL     1     -38.333  48.261  18.076  1.00  0.00     0.248 C 
ATOM     32  O   UNL     1     -39.505  48.618  18.083  1.00  0.00    -0.270 OA
ATOM     33  H   UNL     1     -36.742  47.124  18.777  1.00  0.00     0.170 HD
BRANCH  31  34
ATOM     34  C   UNL     1     -37.352  48.839  17.110  1.00  0.00     0.068 C 
ATOM     35  C   UNL     1     -37.776  49.508  16.028  1.00  0.00    -0.006 C 
BRANCH  35  36
ATOM     36  C   UNL     1     -36.846  50.121  15.025  1.00  0.00     0.111 C 
BRANCH  36  37
ATOM     37  N   UNL     1     -37.496  51.187  14.272  1.00  0.00    -0.306 NA
ATOM     38  C   UNL     1     -37.186  52.492  14.856  1.00  0.00     0.105 C 
ATOM     39  C   UNL     1     -38.944  50.980  14.231  1.00  0.00     0.105 C 
ENDBRANCH  36  37
ENDBRANCH  35  36
ENDBRANCH  31  34
ENDBRANCH   7  30
BRANCH   8  40
ATOM     40  O   UNL     1     -36.660  47.248  21.504  1.00  0.00    -0.492 OA
BRANCH  40  41
ATOM     41  C   UNL     1     -35.714  46.624  22.370  1.00  0.00     0.226 C 
ATOM     42  C   UNL     1     -34.392  46.493  21.644  1.00  0.00     0.049 C 
ENDBRANCH  40  41
ENDBRANCH   8  40
TORSDOF 11
ENDMDL
MODEL 12
REMARK VINA RESULT:    -7.944      3.242      8.007
REMARK INTER + INTRA:         -14.786
REMARK INTER:                 -13.152
REMARK INTRA:                  -1.633
REMARK UNBOUND:                -1.734
REMARK SMILES CCOc1cc2ncc(C#N)c(Nc3ccc(OCc4ccccn4)c(Cl)c3)c2cc1NC(=O)/C=C/CN(C)C
REMARK SMILES IDX 7 1 11 2 29 3 12 4 6 5 30 6 31 7 4 8 5 9 9 10 8 11 10 12
REMARK SMILES IDX 13 13 14 15 26 16 28 17 17 18 16 19 15 20 27 21 18 22 19 23
REMARK SMILES IDX 20 24 25 25 21 26 24 27 22 28 23 29 32 30 33 31 34 32 35 34
REMARK SMILES IDX 36 35 37 36 38 37 39 38 40 39 3 40 2 41 1 42
REMARK H PARENT 13 14 32 33
ROOT
ATOM      1  N   UNL     1     -45.385  48.245  13.456  1.00  0.00    -0.255 NA
ATOM      2  N   UNL     1     -47.794  46.915  17.394  1.00  0.00    -0.192 NA
ATOM      3  C   UNL     1     -43.733  48.456  15.198  1.00  0.00     0.027 A 
ATOM      4  C   UNL     1     -44.679  48.030  16.139  1.00  0.00     0.068 A 
ATOM      5  C   UNL     1     -44.134  48.551  13.848  1.00  0.00     0.076 A 
ATOM      6  C   UNL     1     -42.418  48.782  15.572  1.00  0.00     0.042 A 
ATOM      7  C   UNL     1     -41.498  49.204  14.617  1.00  0.00     0.084 A 
ATOM      8  C   UNL     1     -41.886  49.299  13.286  1.00  0.00     0.144 A 
ATOM      9  C   UNL     1     -43.193  48.974  12.914  1.00  0.00     0.077 A 
ATOM     10  C   UNL     1     -45.970  47.713  15.737  1.00  0.00     0.094 A 
ATOM     11  C   UNL     1     -46.268  47.837  14.395  1.00  0.00     0.133 A 
ATOM     12  C   UNL     1     -46.977  47.273  16.652  1.00  0.00     0.103 C 
ENDROOT
BRANCH   4  13
ATOM     13  N   UNL     1     -44.336  47.914  17.511  1.00  0.00    -0.354 N 
ATOM     14  H   UNL     1     -44.974  48.417  18.120  1.00  0.00     0.167 HD
BRANCH  13  15
ATOM     15  C   UNL     1     -43.299  47.239  18.171  1.00  0.00     0.040 A 
ATOM     16  C   UNL     1     -41.592  47.175  19.889  1.00  0.00     0.085 A 
ATOM     17  C   UNL     1     -42.623  47.848  19.233  1.00  0.00     0.050 A 
ATOM     18  C   UNL     1     -41.230  45.889  19.485  1.00  0.00     0.138 A 
ATOM     19  C   UNL     1     -41.900  45.277  18.426  1.00  0.00     0.050 A 
ATOM     20  C   UNL     1     -42.930  45.950  17.771  1.00  0.00     0.030 A 
ATOM     21  Cl  UNL     1     -40.781  47.956  21.196  1.00  0.00    -0.080 Cl
BRANCH  18  22
ATOM     22  O   UNL     1     -40.227  45.209  20.109  1.00  0.00    -0.486 OA
BRANCH  22  23
ATOM     23  C   UNL     1     -38.898  45.459  19.655  1.00  0.00     0.285 C 
BRANCH  23  24
ATOM     24  C   UNL     1     -38.028  45.769  20.837  1.00  0.00     0.078 A 
ATOM     25  N   UNL     1     -38.140  44.941  21.896  1.00  0.00    -0.258 NA
ATOM     26  C   UNL     1     -37.180  46.858  20.779  1.00  0.00     0.027 A 
ATOM     27  C   UNL     1     -37.354  45.225  22.958  1.00  0.00     0.111 A 
ATOM     28  C   UNL     1     -36.386  47.118  21.891  1.00  0.00     0.004 A 
ATOM     29  C   UNL     1     -36.469  46.290  23.005  1.00  0.00     0.020 A 
ENDBRANCH  23  24
ENDBRANCH  22  23
ENDBRANCH  18  22
ENDBRANCH  13  15
ENDBRANCH   4  13
BRANCH   7  30
ATOM     30  N   UNL     1     -40.196  49.525  15.008  1.00  0.00    -0.319 N 
ATOM     31  C   UNL     1     -39.322  48.768  15.800  1.00  0.00     0.248 C 
ATOM     32  O   UNL     1     -39.542  47.673  16.304  1.00  0.00    -0.270 OA
ATOM     33  H   UNL     1     -39.860  50.422  14.664  1.00  0.00     0.170 HD
BRANCH  31  34
ATOM     34  C   UNL     1     -38.014  49.462  15.991  1.00  0.00     0.068 C 
ATOM     35  C   UNL     1     -37.416  50.084  14.965  1.00  0.00    -0.006 C 
BRANCH  35  36
ATOM     36  C   UNL     1     -36.109  50.806  15.091  1.00  0.00     0.111 C 
BRANCH  36  37
ATOM     37  N   UNL     1     -36.217  51.959  15.978  1.00  0.00    -0.306 NA
ATOM     38  C   UNL     1     -37.020  53.013  15.356  1.00  0.00     0.105 C 
ATOM     39  C   UNL     1     -34.889  52.469  16.323  1.00  0.00     0.105 C 
ENDBRANCH  36  37
ENDBRANCH  35  36
ENDBRANCH  31  34
ENDBRANCH   7  30
BRANCH   8  40
ATOM     40  O   UNL     1     -41.008  49.709  12.327  1.00  0.00    -0.492 OA
BRANCH  40  41
ATOM     41  C   UNL     1     -40.905  51.113  12.102  1.00  0.00     0.226 C 
ATOM     42  C   UNL     1     -39.468  51.455  11.770  1.00  0.00     0.049 C 
ENDBRANCH  40  41
ENDBRANCH   8  40
TORSDOF 11
ENDMDL
MODEL 13
REMARK VINA RESULT:    -7.830      2.850      3.823
REMARK INTER + INTRA:         -14.599
REMARK INTER:                 -15.282
REMARK INTRA:                   0.683
REMARK UNBOUND:                -1.734
REMARK SMILES CCOc1cc2ncc(C#N)c(Nc3ccc(OCc4ccccn4)c(Cl)c3)c2cc1NC(=O)/C=C/CN(C)C
REMARK SMILES IDX 7 1 11 2 29 3 12 4 6 5 30 6 31 7 4 8 5 9 9 10 8 11 10 12
REMARK SMILES IDX 13 13 14 15 26 16 28 17 17 18 16 19 15 20 27 21 18 22 19 23
REMARK SMILES IDX 20 24 25 25 21 26 24 27 22 28 23 29 32 30 33 31 34 32 35 34
REMARK SMILES IDX 36 35 37 36 38 37 39 38 40 39 3 40 2 41 1 42
REMARK H PARENT 13 14 32 33
ROOT
ATOM      1  N   UNL     1     -43.363  49.770  12.825  1.00  0.00    -0.255 NA
ATOM      2  N   UNL     1     -38.901  51.437  12.194  1.00  0.00    -0.192 NA
ATOM      3  C   UNL     1     -42.324  49.357  14.960  1.00  0.00     0.027 A 
ATOM      4  C   UNL     1     -41.130  49.911  14.479  1.00  0.00     0.068 A 
ATOM      5  C   UNL     1     -43.431  49.305  14.087  1.00  0.00     0.076 A 
ATOM      6  C   UNL     1     -42.430  48.863  16.271  1.00  0.00     0.042 A 
ATOM      7  C   UNL     1     -43.628  48.317  16.723  1.00  0.00     0.084 A 
ATOM      8  C   UNL     1     -44.722  48.263  15.869  1.00  0.00     0.144 A 
ATOM      9  C   UNL     1     -44.616  48.755  14.565  1.00  0.00     0.077 A 
ATOM     10  C   UNL     1     -41.057  50.392  13.179  1.00  0.00     0.094 A 
ATOM     11  C   UNL     1     -42.193  50.299  12.400  1.00  0.00     0.133 A 
ATOM     12  C   UNL     1     -39.867  50.969  12.635  1.00  0.00     0.103 C 
ENDROOT
BRANCH   4  13
ATOM     13  N   UNL     1     -39.982  49.992  15.310  1.00  0.00    -0.354 N 
ATOM     14  H   UNL     1     -40.121  49.552  16.215  1.00  0.00     0.167 HD
BRANCH  13  15
ATOM     15  C   UNL     1     -38.711  50.550  15.113  1.00  0.00     0.040 A 
ATOM     16  C   UNL     1     -37.229  52.465  15.153  1.00  0.00     0.085 A 
ATOM     17  C   UNL     1     -38.493  51.911  15.349  1.00  0.00     0.050 A 
ATOM     18  C   UNL     1     -36.174  51.662  14.718  1.00  0.00     0.138 A 
ATOM     19  C   UNL     1     -36.385  50.304  14.480  1.00  0.00     0.050 A 
ATOM     20  C   UNL     1     -37.650  49.750  14.677  1.00  0.00     0.030 A 
ATOM     21  Cl  UNL     1     -36.996  54.148  15.455  1.00  0.00    -0.080 Cl
BRANCH  18  22
ATOM     22  O   UNL     1     -34.928  52.177  14.519  1.00  0.00    -0.486 OA
BRANCH  22  23
ATOM     23  C   UNL     1     -33.937  51.871  15.498  1.00  0.00     0.285 C 
BRANCH  23  24
ATOM     24  C   UNL     1     -32.583  51.915  14.854  1.00  0.00     0.078 A 
ATOM     25  N   UNL     1     -32.532  51.596  13.545  1.00  0.00    -0.258 NA
ATOM     26  C   UNL     1     -31.488  52.272  15.617  1.00  0.00     0.027 A 
ATOM     27  C   UNL     1     -31.310  51.637  12.970  1.00  0.00     0.111 A 
ATOM     28  C   UNL     1     -30.247  52.304  14.991  1.00  0.00     0.004 A 
ATOM     29  C   UNL     1     -30.149  51.982  13.642  1.00  0.00     0.020 A 
ENDBRANCH  23  24
ENDBRANCH  22  23
ENDBRANCH  18  22
ENDBRANCH  13  15
ENDBRANCH   4  13
BRANCH   7  30
ATOM     30  N   UNL     1     -43.714  47.830  18.029  1.00  0.00    -0.319 N 
ATOM     31  C   UNL     1     -43.152  46.658  18.552  1.00  0.00     0.248 C 
ATOM     32  O   UNL     1     -42.474  45.832  17.952  1.00  0.00    -0.270 OA
ATOM     33  H   UNL     1     -44.257  48.413  18.664  1.00  0.00     0.170 HD
BRANCH  31  34
ATOM     34  C   UNL     1     -43.476  46.490  20.000  1.00  0.00     0.068 C 
ATOM     35  C   UNL     1     -42.545  46.719  20.937  1.00  0.00    -0.006 C 
BRANCH  35  36
ATOM     36  C   UNL     1     -42.806  46.579  22.406  1.00  0.00     0.111 C 
BRANCH  36  37
ATOM     37  N   UNL     1     -42.370  45.281  22.907  1.00  0.00    -0.306 NA
ATOM     38  C   UNL     1     -41.107  44.887  22.281  1.00  0.00     0.105 C 
ATOM     39  C   UNL     1     -43.395  44.265  22.666  1.00  0.00     0.105 C 
ENDBRANCH  36  37
ENDBRANCH  35  36
ENDBRANCH  31  34
ENDBRANCH   7  30
BRANCH   8  40
ATOM     40  O   UNL     1     -45.909  47.733  16.281  1.00  0.00    -0.492 OA
BRANCH  40  41
ATOM     41  C   UNL     1     -47.096  48.395  15.854  1.00  0.00     0.226 C 
ATOM     42  C   UNL     1     -47.844  47.496  14.893  1.00  0.00     0.049 C 
ENDBRANCH  40  41
ENDBRANCH   8  40
TORSDOF 11
ENDMDL
MODEL 14
REMARK VINA RESULT:    -7.715      4.454      9.506
REMARK INTER + INTRA:         -14.409
REMARK INTER:                 -12.594
REMARK INTRA:                  -1.816
REMARK UNBOUND:                -1.734
REMARK SMILES CCOc1cc2ncc(C#N)c(Nc3ccc(OCc4ccccn4)c(Cl)c3)c2cc1NC(=O)/C=C/CN(C)C
REMARK SMILES IDX 7 1 11 2 29 3 12 4 6 5 30 6 31 7 4 8 5 9 9 10 8 11 10 12
REMARK SMILES IDX 13 13 14 15 26 16 28 17 17 18 16 19 15 20 27 21 18 22 19 23
REMARK SMILES IDX 20 24 25 25 21 26 24 27 22 28 23 29 32 30 33 31 34 32 35 34
REMARK SMILES IDX 36 35 37 36 38 37 39 38 40 39 3 40 2 41 1 42
REMARK H PARENT 13 14 32 33
ROOT
ATOM      1  N   UNL     1     -38.484  50.439  15.861  1.00  0.00    -0.255 NA
ATOM      2  N   UNL     1     -40.768  51.434  11.753  1.00  0.00    -0.192 NA
ATOM      3  C   UNL     1     -40.017  48.594  15.633  1.00  0.00     0.027 A 
ATOM      4  C   UNL     1     -40.492  49.143  14.436  1.00  0.00     0.068 A 
ATOM      5  C   UNL     1     -38.998  49.283  16.323  1.00  0.00     0.076 A 
ATOM      6  C   UNL     1     -40.531  47.389  16.145  1.00  0.00     0.042 A 
ATOM      7  C   UNL     1     -40.041  46.865  17.338  1.00  0.00     0.084 A 
ATOM      8  C   UNL     1     -39.037  47.540  18.023  1.00  0.00     0.144 A 
ATOM      9  C   UNL     1     -38.527  48.737  17.513  1.00  0.00     0.077 A 
ATOM     10  C   UNL     1     -39.963  50.334  13.956  1.00  0.00     0.094 A 
ATOM     11  C   UNL     1     -38.969  50.936  14.700  1.00  0.00     0.133 A 
ATOM     12  C   UNL     1     -40.408  50.941  12.740  1.00  0.00     0.103 C 
ENDROOT
BRANCH   4  13
ATOM     13  N   UNL     1     -41.516  48.495  13.696  1.00  0.00    -0.354 N 
ATOM     14  H   UNL     1     -41.150  47.900  12.958  1.00  0.00     0.167 HD
BRANCH  13  15
ATOM     15  C   UNL     1     -42.914  48.518  13.799  1.00  0.00     0.040 A 
ATOM     16  C   UNL     1     -45.068  49.272  12.988  1.00  0.00     0.085 A 
ATOM     17  C   UNL     1     -43.677  49.251  12.884  1.00  0.00     0.050 A 
ATOM     18  C   UNL     1     -45.704  48.563  14.007  1.00  0.00     0.138 A 
ATOM     19  C   UNL     1     -44.948  47.831  14.923  1.00  0.00     0.050 A 
ATOM     20  C   UNL     1     -43.557  47.809  14.820  1.00  0.00     0.030 A 
ATOM     21  Cl  UNL     1     -45.978  50.185  11.841  1.00  0.00    -0.080 Cl
BRANCH  18  22
ATOM     22  O   UNL     1     -47.061  48.566  14.131  1.00  0.00    -0.486 OA
BRANCH  22  23
ATOM     23  C   UNL     1     -47.638  47.555  14.955  1.00  0.00     0.285 C 
BRANCH  23  24
ATOM     24  C   UNL     1     -48.399  48.208  16.070  1.00  0.00     0.078 A 
ATOM     25  N   UNL     1     -48.744  47.414  17.105  1.00  0.00    -0.258 NA
ATOM     26  C   UNL     1     -48.697  49.554  15.981  1.00  0.00     0.027 A 
ATOM     27  C   UNL     1     -49.429  48.008  18.107  1.00  0.00     0.111 A 
ATOM     28  C   UNL     1     -49.403  50.129  17.032  1.00  0.00     0.004 A 
ATOM     29  C   UNL     1     -49.779  49.348  18.119  1.00  0.00     0.020 A 
ENDBRANCH  23  24
ENDBRANCH  22  23
ENDBRANCH  18  22
ENDBRANCH  13  15
ENDBRANCH   4  13
BRANCH   7  30
ATOM     30  N   UNL     1     -40.564  45.668  17.832  1.00  0.00    -0.319 N 
ATOM     31  C   UNL     1     -41.731  45.483  18.585  1.00  0.00     0.248 C 
ATOM     32  O   UNL     1     -42.517  46.347  18.956  1.00  0.00    -0.270 OA
ATOM     33  H   UNL     1     -40.015  44.841  17.605  1.00  0.00     0.170 HD
BRANCH  31  34
ATOM     34  C   UNL     1     -41.946  44.044  18.920  1.00  0.00     0.068 C 
ATOM     35  C   UNL     1     -42.362  43.684  20.143  1.00  0.00    -0.006 C 
BRANCH  35  36
ATOM     36  C   UNL     1     -42.606  42.260  20.543  1.00  0.00     0.111 C 
BRANCH  36  37
ATOM     37  N   UNL     1     -43.989  42.048  20.953  1.00  0.00    -0.306 NA
ATOM     38  C   UNL     1     -44.844  41.828  19.786  1.00  0.00     0.105 C 
ATOM     39  C   UNL     1     -44.476  43.188  21.732  1.00  0.00     0.105 C 
ENDBRANCH  36  37
ENDBRANCH  35  36
ENDBRANCH  31  34
ENDBRANCH   7  30
BRANCH   8  40
ATOM     40  O   UNL     1     -38.538  47.053  19.194  1.00  0.00    -0.492 OA
BRANCH  40  41
ATOM     41  C   UNL     1     -38.435  47.966  20.283  1.00  0.00     0.226 C 
ATOM     42  C   UNL     1     -39.688  47.870  21.127  1.00  0.00     0.049 C 
ENDBRANCH  40  41
ENDBRANCH   8  40
TORSDOF 11
ENDMDL
MODEL 15
REMARK VINA RESULT:    -7.706      4.436      9.399
REMARK INTER + INTRA:         -14.395
REMARK INTER:                 -12.651
REMARK INTRA:                  -1.744
REMARK UNBOUND:                -1.734
REMARK SMILES CCOc1cc2ncc(C#N)c(Nc3ccc(OCc4ccccn4)c(Cl)c3)c2cc1NC(=O)/C=C/CN(C)C
REMARK SMILES IDX 7 1 11 2 29 3 12 4 6 5 30 6 31 7 4 8 5 9 9 10 8 11 10 12
REMARK SMILES IDX 13 13 14 15 26 16 28 17 17 18 16 19 15 20 27 21 18 22 19 23
REMARK SMILES IDX 20 24 25 25 21 26 24 27 22 28 23 29 32 30 33 31 34 32 35 34
REMARK SMILES IDX 36 35 37 36 38 37 39 38 40 39 3 40 2 41 1 42
REMARK H PARENT 13 14 32 33
ROOT
ATOM      1  N   UNL     1     -38.362  50.569  15.803  1.00  0.00    -0.255 NA
ATOM      2  N   UNL     1     -40.608  51.407  11.639  1.00  0.00    -0.192 NA
ATOM      3  C   UNL     1     -39.874  48.703  15.619  1.00  0.00     0.027 A 
ATOM      4  C   UNL     1     -40.341  49.209  14.399  1.00  0.00     0.068 A 
ATOM      5  C   UNL     1     -38.870  49.425  16.298  1.00  0.00     0.076 A 
ATOM      6  C   UNL     1     -40.383  47.511  16.164  1.00  0.00     0.042 A 
ATOM      7  C   UNL     1     -39.902  47.031  17.380  1.00  0.00     0.084 A 
ATOM      8  C   UNL     1     -38.913  47.737  18.053  1.00  0.00     0.144 A 
ATOM      9  C   UNL     1     -38.407  48.922  17.510  1.00  0.00     0.077 A 
ATOM     10  C   UNL     1     -39.818  50.388  13.886  1.00  0.00     0.094 A 
ATOM     11  C   UNL     1     -38.838  51.023  14.622  1.00  0.00     0.133 A 
ATOM     12  C   UNL     1     -40.254  50.951  12.646  1.00  0.00     0.103 C 
ENDROOT
BRANCH   4  13
ATOM     13  N   UNL     1     -41.350  48.527  13.670  1.00  0.00    -0.354 N 
ATOM     14  H   UNL     1     -40.970  47.891  12.975  1.00  0.00     0.167 HD
BRANCH  13  15
ATOM     15  C   UNL     1     -42.750  48.563  13.736  1.00  0.00     0.040 A 
ATOM     16  C   UNL     1     -44.838  47.662  14.572  1.00  0.00     0.085 A 
ATOM     17  C   UNL     1     -43.445  47.625  14.507  1.00  0.00     0.050 A 
ATOM     18  C   UNL     1     -45.544  48.636  13.865  1.00  0.00     0.138 A 
ATOM     19  C   UNL     1     -44.857  49.573  13.093  1.00  0.00     0.050 A 
ATOM     20  C   UNL     1     -43.464  49.536  13.029  1.00  0.00     0.030 A 
ATOM     21  Cl  UNL     1     -45.663  46.491  15.534  1.00  0.00    -0.080 Cl
BRANCH  18  22
ATOM     22  O   UNL     1     -46.905  48.696  13.911  1.00  0.00    -0.486 OA
BRANCH  22  23
ATOM     23  C   UNL     1     -47.601  48.533  12.676  1.00  0.00     0.285 C 
BRANCH  23  24
ATOM     24  C   UNL     1     -48.256  49.832  12.310  1.00  0.00     0.078 A 
ATOM     25  N   UNL     1     -47.746  50.481  11.244  1.00  0.00    -0.258 NA
ATOM     26  C   UNL     1     -49.322  50.282  13.066  1.00  0.00     0.027 A 
ATOM     27  C   UNL     1     -48.341  51.650  10.919  1.00  0.00     0.111 A 
ATOM     28  C   UNL     1     -49.908  51.489  12.700  1.00  0.00     0.004 A 
ATOM     29  C   UNL     1     -49.414  52.192  11.607  1.00  0.00     0.020 A 
ENDBRANCH  23  24
ENDBRANCH  22  23
ENDBRANCH  18  22
ENDBRANCH  13  15
ENDBRANCH   4  13
BRANCH   7  30
ATOM     30  N   UNL     1     -40.420  45.846  17.906  1.00  0.00    -0.319 N 
ATOM     31  C   UNL     1     -41.396  45.698  18.900  1.00  0.00     0.248 C 
ATOM     32  O   UNL     1     -41.982  46.592  19.500  1.00  0.00    -0.270 OA
ATOM     33  H   UNL     1     -40.026  44.997  17.505  1.00  0.00     0.170 HD
BRANCH  31  34
ATOM     34  C   UNL     1     -41.677  44.259  19.186  1.00  0.00     0.068 C 
ATOM     35  C   UNL     1     -42.934  43.795  19.173  1.00  0.00    -0.006 C 
BRANCH  35  36
ATOM     36  C   UNL     1     -43.284  42.362  19.442  1.00  0.00     0.111 C 
BRANCH  36  37
ATOM     37  N   UNL     1     -43.921  42.201  20.744  1.00  0.00    -0.306 NA
ATOM     38  C   UNL     1     -44.502  43.467  21.192  1.00  0.00     0.105 C 
ATOM     39  C   UNL     1     -42.960  41.705  21.730  1.00  0.00     0.105 C 
ENDBRANCH  36  37
ENDBRANCH  35  36
ENDBRANCH  31  34
ENDBRANCH   7  30
BRANCH   8  40
ATOM     40  O   UNL     1     -38.422  47.294  19.245  1.00  0.00    -0.492 OA
BRANCH  40  41
ATOM     41  C   UNL     1     -38.635  48.126  20.382  1.00  0.00     0.226 C 
ATOM     42  C   UNL     1     -39.086  47.267  21.544  1.00  0.00     0.049 C 
ENDBRANCH  40  41
ENDBRANCH   8  40
TORSDOF 11
ENDMDL
MODEL 16
REMARK VINA RESULT:    -7.667      4.448      8.637
REMARK INTER + INTRA:         -14.332
REMARK INTER:                 -12.657
REMARK INTRA:                  -1.674
REMARK UNBOUND:                -1.734
REMARK SMILES CCOc1cc2ncc(C#N)c(Nc3ccc(OCc4ccccn4)c(Cl)c3)c2cc1NC(=O)/C=C/CN(C)C
REMARK SMILES IDX 7 1 11 2 29 3 12 4 6 5 30 6 31 7 4 8 5 9 9 10 8 11 10 12
REMARK SMILES IDX 13 13 14 15 26 16 28 17 17 18 16 19 15 20 27 21 18 22 19 23
REMARK SMILES IDX 20 24 25 25 21 26 24 27 22 28 23 29 32 30 33 31 34 32 35 34
REMARK SMILES IDX 36 35 37 36 38 37 39 38 40 39 3 40 2 41 1 42
REMARK H PARENT 13 14 32 33
ROOT
ATOM      1  N   UNL     1     -41.959  50.110  12.472  1.00  0.00    -0.255 NA
ATOM      2  N   UNL     1     -38.042  50.933  15.129  1.00  0.00    -0.192 NA
ATOM      3  C   UNL     1     -42.633  49.383  14.668  1.00  0.00     0.027 A 
ATOM      4  C   UNL     1     -41.368  49.728  15.163  1.00  0.00     0.068 A 
ATOM      5  C   UNL     1     -42.889  49.594  13.297  1.00  0.00     0.076 A 
ATOM      6  C   UNL     1     -43.627  48.843  15.501  1.00  0.00     0.042 A 
ATOM      7  C   UNL     1     -44.875  48.508  14.983  1.00  0.00     0.084 A 
ATOM      8  C   UNL     1     -45.134  48.713  13.633  1.00  0.00     0.144 A 
ATOM      9  C   UNL     1     -44.145  49.251  12.805  1.00  0.00     0.077 A 
ATOM     10  C   UNL     1     -40.408  50.261  14.315  1.00  0.00     0.094 A 
ATOM     11  C   UNL     1     -40.752  50.430  12.989  1.00  0.00     0.133 A 
ATOM     12  C   UNL     1     -39.102  50.632  14.764  1.00  0.00     0.103 C 
ENDROOT
BRANCH   4  13
ATOM     13  N   UNL     1     -41.051  49.540  16.534  1.00  0.00    -0.354 N 
ATOM     14  H   UNL     1     -41.284  50.347  17.105  1.00  0.00     0.167 HD
BRANCH  13  15
ATOM     15  C   UNL     1     -40.492  48.461  17.235  1.00  0.00     0.040 A 
ATOM     16  C   UNL     1     -40.690  46.238  18.175  1.00  0.00     0.085 A 
ATOM     17  C   UNL     1     -41.247  47.310  17.478  1.00  0.00     0.050 A 
ATOM     18  C   UNL     1     -39.374  46.312  18.633  1.00  0.00     0.138 A 
ATOM     19  C   UNL     1     -38.616  47.458  18.394  1.00  0.00     0.050 A 
ATOM     20  C   UNL     1     -39.174  48.530  17.698  1.00  0.00     0.030 A 
ATOM     21  Cl  UNL     1     -41.650  44.832  18.455  1.00  0.00    -0.080 Cl
BRANCH  18  22
ATOM     22  O   UNL     1     -38.804  45.279  19.316  1.00  0.00    -0.486 OA
BRANCH  22  23
ATOM     23  C   UNL     1     -39.025  45.236  20.725  1.00  0.00     0.285 C 
BRANCH  23  24
ATOM     24  C   UNL     1     -37.793  45.725  21.427  1.00  0.00     0.078 A 
ATOM     25  N   UNL     1     -36.729  44.897  21.417  1.00  0.00    -0.258 NA
ATOM     26  C   UNL     1     -37.813  46.968  22.031  1.00  0.00     0.027 A 
ATOM     27  C   UNL     1     -35.622  45.343  22.051  1.00  0.00     0.111 A 
ATOM     28  C   UNL     1     -36.655  47.393  22.673  1.00  0.00     0.004 A 
ATOM     29  C   UNL     1     -35.534  46.570  22.687  1.00  0.00     0.020 A 
ENDBRANCH  23  24
ENDBRANCH  22  23
ENDBRANCH  18  22
ENDBRANCH  13  15
ENDBRANCH   4  13
BRANCH   7  30
ATOM     30  N   UNL     1     -45.851  47.971  15.826  1.00  0.00    -0.319 N 
ATOM     31  C   UNL     1     -46.095  46.622  16.113  1.00  0.00     0.248 C 
ATOM     32  O   UNL     1     -45.491  45.651  15.670  1.00  0.00    -0.270 OA
ATOM     33  H   UNL     1     -46.447  48.662  16.278  1.00  0.00     0.170 HD
BRANCH  31  34
ATOM     34  C   UNL     1     -47.232  46.459  17.066  1.00  0.00     0.068 C 
ATOM     35  C   UNL     1     -48.453  46.130  16.620  1.00  0.00    -0.006 C 
BRANCH  35  36
ATOM     36  C   UNL     1     -49.635  45.942  17.523  1.00  0.00     0.111 C 
BRANCH  36  37
ATOM     37  N   UNL     1     -49.227  45.794  18.916  1.00  0.00    -0.306 NA
ATOM     38  C   UNL     1     -49.387  44.407  19.354  1.00  0.00     0.105 C 
ATOM     39  C   UNL     1     -49.999  46.691  19.777  1.00  0.00     0.105 C 
ENDBRANCH  36  37
ENDBRANCH  35  36
ENDBRANCH  31  34
ENDBRANCH   7  30
BRANCH   8  40
ATOM     40  O   UNL     1     -46.346  48.395  13.096  1.00  0.00    -0.492 OA
BRANCH  40  41
ATOM     41  C   UNL     1     -46.590  48.815  11.756  1.00  0.00     0.226 C 
ATOM     42  C   UNL     1     -47.643  49.903  11.764  1.00  0.00     0.049 C 
ENDBRANCH  40  41
ENDBRANCH   8  40
TORSDOF 11
ENDMDL
MODEL 17
REMARK VINA RESULT:    -7.515      4.396     11.240
REMARK INTER + INTRA:         -14.082
REMARK INTER:                 -12.653
REMARK INTRA:                  -1.429
REMARK UNBOUND:                -1.734
REMARK SMILES CCOc1cc2ncc(C#N)c(Nc3ccc(OCc4ccccn4)c(Cl)c3)c2cc1NC(=O)/C=C/CN(C)C
REMARK SMILES IDX 7 1 11 2 29 3 12 4 6 5 30 6 31 7 4 8 5 9 9 10 8 11 10 12
REMARK SMILES IDX 13 13 14 15 26 16 28 17 17 18 16 19 15 20 27 21 18 22 19 23
REMARK SMILES IDX 20 24 25 25 21 26 24 27 22 28 23 29 32 30 33 31 34 32 35 34
REMARK SMILES IDX 36 35 37 36 38 37 39 38 40 39 3 40 2 41 1 42
REMARK H PARENT 13 14 32 33
ROOT
ATOM      1  N   UNL     1     -37.681  48.119  19.128  1.00  0.00    -0.255 NA
ATOM      2  N   UNL     1     -40.444  46.531  22.723  1.00  0.00    -0.192 NA
ATOM      3  C   UNL     1     -39.909  48.349  18.240  1.00  0.00     0.027 A 
ATOM      4  C   UNL     1     -40.432  47.841  19.436  1.00  0.00     0.068 A 
ATOM      5  C   UNL     1     -38.508  48.473  18.127  1.00  0.00     0.076 A 
ATOM      6  C   UNL     1     -40.743  48.729  17.175  1.00  0.00     0.042 A 
ATOM      7  C   UNL     1     -40.197  49.230  15.996  1.00  0.00     0.084 A 
ATOM      8  C   UNL     1     -38.818  49.354  15.878  1.00  0.00     0.144 A 
ATOM      9  C   UNL     1     -37.989  48.978  16.938  1.00  0.00     0.077 A 
ATOM     10  C   UNL     1     -39.582  47.477  20.471  1.00  0.00     0.094 A 
ATOM     11  C   UNL     1     -38.225  47.635  20.268  1.00  0.00     0.133 A 
ATOM     12  C   UNL     1     -40.058  46.954  21.714  1.00  0.00     0.103 C 
ENDROOT
BRANCH   4  13
ATOM     13  N   UNL     1     -41.833  47.694  19.610  1.00  0.00    -0.354 N 
ATOM     14  H   UNL     1     -42.167  48.106  20.477  1.00  0.00     0.167 HD
BRANCH  13  15
ATOM     15  C   UNL     1     -42.826  47.101  18.816  1.00  0.00     0.040 A 
ATOM     16  C   UNL     1     -44.185  45.181  18.238  1.00  0.00     0.085 A 
ATOM     17  C   UNL     1     -43.197  45.769  19.028  1.00  0.00     0.050 A 
ATOM     18  C   UNL     1     -44.806  45.920  17.231  1.00  0.00     0.138 A 
ATOM     19  C   UNL     1     -44.439  47.248  17.014  1.00  0.00     0.050 A 
ATOM     20  C   UNL     1     -43.451  47.837  17.804  1.00  0.00     0.030 A 
ATOM     21  Cl  UNL     1     -44.619  43.537  18.528  1.00  0.00    -0.080 Cl
BRANCH  18  22
ATOM     22  O   UNL     1     -45.774  45.371  16.445  1.00  0.00    -0.486 OA
BRANCH  22  23
ATOM     23  C   UNL     1     -46.896  46.193  16.131  1.00  0.00     0.285 C 
BRANCH  23  24
ATOM     24  C   UNL     1     -47.436  45.792  14.790  1.00  0.00     0.078 A 
ATOM     25  N   UNL     1     -48.777  45.821  14.651  1.00  0.00    -0.258 NA
ATOM     26  C   UNL     1     -46.552  45.425  13.793  1.00  0.00     0.027 A 
ATOM     27  C   UNL     1     -49.257  45.460  13.441  1.00  0.00     0.111 A 
ATOM     28  C   UNL     1     -47.084  45.060  12.561  1.00  0.00     0.004 A 
ATOM     29  C   UNL     1     -48.462  45.075  12.374  1.00  0.00     0.020 A 
ENDBRANCH  23  24
ENDBRANCH  22  23
ENDBRANCH  18  22
ENDBRANCH  13  15
ENDBRANCH   4  13
BRANCH   7  30
ATOM     30  N   UNL     1     -41.042  49.600  14.948  1.00  0.00    -0.319 N 
ATOM     31  C   UNL     1     -41.814  48.768  14.127  1.00  0.00     0.248 C 
ATOM     32  O   UNL     1     -41.891  47.546  14.177  1.00  0.00    -0.270 OA
ATOM     33  H   UNL     1     -41.088  50.603  14.776  1.00  0.00     0.170 HD
BRANCH  31  34
ATOM     34  C   UNL     1     -42.585  49.553  13.117  1.00  0.00     0.068 C 
ATOM     35  C   UNL     1     -43.925  49.546  13.128  1.00  0.00    -0.006 C 
BRANCH  35  36
ATOM     36  C   UNL     1     -44.759  50.318  12.150  1.00  0.00     0.111 C 
BRANCH  36  37
ATOM     37  N   UNL     1     -45.937  49.564  11.737  1.00  0.00    -0.306 NA
ATOM     38  C   UNL     1     -46.906  50.443  11.082  1.00  0.00     0.105 C 
ATOM     39  C   UNL     1     -46.551  48.897  12.886  1.00  0.00     0.105 C 
ENDBRANCH  36  37
ENDBRANCH  35  36
ENDBRANCH  31  34
ENDBRANCH   7  30
BRANCH   8  40
ATOM     40  O   UNL     1     -38.253  49.841  14.737  1.00  0.00    -0.492 OA
BRANCH  40  41
ATOM     41  C   UNL     1     -37.250  50.842  14.888  1.00  0.00     0.226 C 
ATOM     42  C   UNL     1     -37.920  52.185  15.090  1.00  0.00     0.049 C 
ENDBRANCH  40  41
ENDBRANCH   8  40
TORSDOF 11
ENDMDL
MODEL 18
REMARK VINA RESULT:    -7.491      3.969      9.356
REMARK INTER + INTRA:         -14.042
REMARK INTER:                 -12.309
REMARK INTRA:                  -1.734
REMARK UNBOUND:                -1.734
REMARK SMILES CCOc1cc2ncc(C#N)c(Nc3ccc(OCc4ccccn4)c(Cl)c3)c2cc1NC(=O)/C=C/CN(C)C
REMARK SMILES IDX 7 1 11 2 29 3 12 4 6 5 30 6 31 7 4 8 5 9 9 10 8 11 10 12
REMARK SMILES IDX 13 13 14 15 26 16 28 17 17 18 16 19 15 20 27 21 18 22 19 23
REMARK SMILES IDX 20 24 25 25 21 26 24 27 22 28 23 29 32 30 33 31 34 32 35 34
REMARK SMILES IDX 36 35 37 36 38 37 39 38 40 39 3 40 2 41 1 42
REMARK H PARENT 13 14 32 33
ROOT
ATOM      1  N   UNL     1     -41.411  44.477  21.130  1.00  0.00    -0.255 NA
ATOM      2  N   UNL     1     -45.977  45.239  19.841  1.00  0.00    -0.192 NA
ATOM      3  C   UNL     1     -41.278  46.510  19.843  1.00  0.00     0.027 A 
ATOM      4  C   UNL     1     -42.662  46.460  19.632  1.00  0.00     0.068 A 
ATOM      5  C   UNL     1     -40.685  45.484  20.609  1.00  0.00     0.076 A 
ATOM      6  C   UNL     1     -40.490  47.547  19.314  1.00  0.00     0.042 A 
ATOM      7  C   UNL     1     -39.116  47.572  19.539  1.00  0.00     0.084 A 
ATOM      8  C   UNL     1     -38.526  46.564  20.292  1.00  0.00     0.144 A 
ATOM      9  C   UNL     1     -39.310  45.534  20.818  1.00  0.00     0.077 A 
ATOM     10  C   UNL     1     -43.414  45.424  20.169  1.00  0.00     0.094 A 
ATOM     11  C   UNL     1     -42.745  44.466  20.904  1.00  0.00     0.133 A 
ATOM     12  C   UNL     1     -44.828  45.322  19.988  1.00  0.00     0.103 C 
ENDROOT
BRANCH   4  13
ATOM     13  N   UNL     1     -43.316  47.464  18.871  1.00  0.00    -0.354 N 
ATOM     14  H   UNL     1     -43.754  48.174  19.451  1.00  0.00     0.167 HD
BRANCH  13  15
ATOM     15  C   UNL     1     -43.460  47.658  17.489  1.00  0.00     0.040 A 
ATOM     16  C   UNL     1     -44.323  46.933  15.345  1.00  0.00     0.085 A 
ATOM     17  C   UNL     1     -44.180  46.739  16.719  1.00  0.00     0.050 A 
ATOM     18  C   UNL     1     -43.746  48.046  14.733  1.00  0.00     0.138 A 
ATOM     19  C   UNL     1     -43.025  48.965  15.496  1.00  0.00     0.050 A 
ATOM     20  C   UNL     1     -42.883  48.771  16.870  1.00  0.00     0.030 A 
ATOM     21  Cl  UNL     1     -45.220  45.780  14.426  1.00  0.00    -0.080 Cl
BRANCH  18  22
ATOM     22  O   UNL     1     -43.870  48.260  13.393  1.00  0.00    -0.486 OA
BRANCH  22  23
ATOM     23  C   UNL     1     -44.150  49.595  12.975  1.00  0.00     0.285 C 
BRANCH  23  24
ATOM     24  C   UNL     1     -45.519  49.638  12.363  1.00  0.00     0.078 A 
ATOM     25  N   UNL     1     -46.364  48.647  12.716  1.00  0.00    -0.258 NA
ATOM     26  C   UNL     1     -45.834  50.665  11.494  1.00  0.00     0.027 A 
ATOM     27  C   UNL     1     -47.596  48.691  12.163  1.00  0.00     0.111 A 
ATOM     28  C   UNL     1     -47.112  50.677  10.945  1.00  0.00     0.004 A 
ATOM     29  C   UNL     1     -48.015  49.674  11.281  1.00  0.00     0.020 A 
ENDBRANCH  23  24
ENDBRANCH  22  23
ENDBRANCH  18  22
ENDBRANCH  13  15
ENDBRANCH   4  13
BRANCH   7  30
ATOM     30  N   UNL     1     -38.349  48.609  19.004  1.00  0.00    -0.319 N 
ATOM     31  C   UNL     1     -37.812  48.708  17.714  1.00  0.00     0.248 C 
ATOM     32  O   UNL     1     -37.916  47.892  16.805  1.00  0.00    -0.270 OA
ATOM     33  H   UNL     1     -38.170  49.378  19.647  1.00  0.00     0.170 HD
BRANCH  31  34
ATOM     34  C   UNL     1     -37.049  49.978  17.532  1.00  0.00     0.068 C 
ATOM     35  C   UNL     1     -36.771  50.436  16.303  1.00  0.00    -0.006 C 
BRANCH  35  36
ATOM     36  C   UNL     1     -36.017  51.707  16.050  1.00  0.00     0.111 C 
BRANCH  36  37
ATOM     37  N   UNL     1     -36.671  52.524  15.033  1.00  0.00    -0.306 NA
ATOM     38  C   UNL     1     -37.285  53.705  15.640  1.00  0.00     0.105 C 
ATOM     39  C   UNL     1     -37.676  51.742  14.312  1.00  0.00     0.105 C 
ENDBRANCH  36  37
ENDBRANCH  35  36
ENDBRANCH  31  34
ENDBRANCH   7  30
BRANCH   8  40
ATOM     40  O   UNL     1     -37.184  46.560  20.529  1.00  0.00    -0.492 OA
BRANCH  40  41
ATOM     41  C   UNL     1     -36.766  46.442  21.886  1.00  0.00     0.226 C 
ATOM     42  C   UNL     1     -35.254  46.397  21.935  1.00  0.00     0.049 C 
ENDBRANCH  40  41
ENDBRANCH   8  40
TORSDOF 11
ENDMDL
MODEL 19
REMARK VINA RESULT:    -7.464      3.803      8.730
REMARK INTER + INTRA:         -13.998
REMARK INTER:                 -11.950
REMARK INTRA:                  -2.048
REMARK UNBOUND:                -1.734
REMARK SMILES CCOc1cc2ncc(C#N)c(Nc3ccc(OCc4ccccn4)c(Cl)c3)c2cc1NC(=O)/C=C/CN(C)C
REMARK SMILES IDX 7 1 11 2 29 3 12 4 6 5 30 6 31 7 4 8 5 9 9 10 8 11 10 12
REMARK SMILES IDX 13 13 14 15 26 16 28 17 17 18 16 19 15 20 27 21 18 22 19 23
REMARK SMILES IDX 20 24 25 25 21 26 24 27 22 28 23 29 32 30 33 31 34 32 35 34
REMARK SMILES IDX 36 35 37 36 38 37 39 38 40 39 3 40 2 41 1 42
REMARK H PARENT 13 14 32 33
ROOT
ATOM      1  N   UNL     1     -40.034  50.774  13.896  1.00  0.00    -0.255 NA
ATOM      2  N   UNL     1     -35.514  50.635  15.521  1.00  0.00    -0.192 NA
ATOM      3  C   UNL     1     -40.076  48.938  15.455  1.00  0.00     0.027 A 
ATOM      4  C   UNL     1     -38.717  49.145  15.728  1.00  0.00     0.068 A 
ATOM      5  C   UNL     1     -40.703  49.787  14.519  1.00  0.00     0.076 A 
ATOM      6  C   UNL     1     -40.805  47.916  16.087  1.00  0.00     0.042 A 
ATOM      7  C   UNL     1     -42.154  47.731  15.797  1.00  0.00     0.084 A 
ATOM      8  C   UNL     1     -42.778  48.564  14.877  1.00  0.00     0.144 A 
ATOM      9  C   UNL     1     -42.053  49.579  14.248  1.00  0.00     0.077 A 
ATOM     10  C   UNL     1     -38.025  50.163  15.087  1.00  0.00     0.094 A 
ATOM     11  C   UNL     1     -38.724  50.943  14.188  1.00  0.00     0.133 A 
ATOM     12  C   UNL     1     -36.639  50.423  15.326  1.00  0.00     0.103 C 
ENDROOT
BRANCH   4  13
ATOM     13  N   UNL     1     -38.031  48.324  16.660  1.00  0.00    -0.354 N 
ATOM     14  H   UNL     1     -37.127  48.013  16.318  1.00  0.00     0.167 HD
BRANCH  13  15
ATOM     15  C   UNL     1     -38.363  47.876  17.946  1.00  0.00     0.040 A 
ATOM     16  C   UNL     1     -38.941  48.347  20.251  1.00  0.00     0.085 A 
ATOM     17  C   UNL     1     -38.611  48.794  18.972  1.00  0.00     0.050 A 
ATOM     18  C   UNL     1     -39.024  46.978  20.513  1.00  0.00     0.138 A 
ATOM     19  C   UNL     1     -38.778  46.058  19.494  1.00  0.00     0.050 A 
ATOM     20  C   UNL     1     -38.448  46.505  18.215  1.00  0.00     0.030 A 
ATOM     21  Cl  UNL     1     -39.241  49.507  21.492  1.00  0.00    -0.080 Cl
BRANCH  18  22
ATOM     22  O   UNL     1     -39.345  46.514  21.754  1.00  0.00    -0.486 OA
BRANCH  22  23
ATOM     23  C   UNL     1     -39.861  45.186  21.833  1.00  0.00     0.285 C 
BRANCH  23  24
ATOM     24  C   UNL     1     -41.314  45.248  22.198  1.00  0.00     0.078 A 
ATOM     25  N   UNL     1     -41.906  44.074  22.499  1.00  0.00    -0.258 NA
ATOM     26  C   UNL     1     -41.953  46.473  22.209  1.00  0.00     0.027 A 
ATOM     27  C   UNL     1     -43.216  44.136  22.827  1.00  0.00     0.111 A 
ATOM     28  C   UNL     1     -43.299  46.497  22.552  1.00  0.00     0.004 A 
ATOM     29  C   UNL     1     -43.950  45.309  22.869  1.00  0.00     0.020 A 
ENDBRANCH  23  24
ENDBRANCH  22  23
ENDBRANCH  18  22
ENDBRANCH  13  15
ENDBRANCH   4  13
BRANCH   7  30
ATOM     30  N   UNL     1     -42.863  46.710  16.435  1.00  0.00    -0.319 N 
ATOM     31  C   UNL     1     -43.357  46.692  17.746  1.00  0.00     0.248 C 
ATOM     32  O   UNL     1     -43.256  47.579  18.586  1.00  0.00    -0.270 OA
ATOM     33  H   UNL     1     -43.030  45.887  15.859  1.00  0.00     0.170 HD
BRANCH  31  34
ATOM     34  C   UNL     1     -44.062  45.412  18.051  1.00  0.00     0.068 C 
ATOM     35  C   UNL     1     -44.586  45.196  19.265  1.00  0.00    -0.006 C 
BRANCH  35  36
ATOM     36  C   UNL     1     -45.314  43.938  19.634  1.00  0.00     0.111 C 
BRANCH  36  37
ATOM     37  N   UNL     1     -46.504  44.220  20.429  1.00  0.00    -0.306 NA
ATOM     38  C   UNL     1     -47.376  43.047  20.483  1.00  0.00     0.105 C 
ATOM     39  C   UNL     1     -47.228  45.368  19.882  1.00  0.00     0.105 C 
ENDBRANCH  36  37
ENDBRANCH  35  36
ENDBRANCH  31  34
ENDBRANCH   7  30
BRANCH   8  40
ATOM     40  O   UNL     1     -44.098  48.407  14.571  1.00  0.00    -0.492 OA
BRANCH  40  41
ATOM     41  C   UNL     1     -44.612  49.197  13.501  1.00  0.00     0.226 C 
ATOM     42  C   UNL     1     -46.029  48.756  13.200  1.00  0.00     0.049 C 
ENDBRANCH  40  41
ENDBRANCH   8  40
TORSDOF 11
ENDMDL
MODEL 20
REMARK VINA RESULT:    -7.410      3.119      8.437
REMARK INTER + INTRA:         -13.910
REMARK INTER:                 -12.898
REMARK INTRA:                  -1.011
REMARK UNBOUND:                -1.734
REMARK SMILES CCOc1cc2ncc(C#N)c(Nc3ccc(OCc4ccccn4)c(Cl)c3)c2cc1NC(=O)/C=C/CN(C)C
REMARK SMILES IDX 7 1 11 2 29 3 12 4 6 5 30 6 31 7 4 8 5 9 9 10 8 11 10 12
REMARK SMILES IDX 13 13 14 15 26 16 28 17 17 18 16 19 15 20 27 21 18 22 19 23
REMARK SMILES IDX 20 24 25 25 21 26 24 27 22 28 23 29 32 30 33 31 34 32 35 34
REMARK SMILES IDX 36 35 37 36 38 37 39 38 40 39 3 40 2 41 1 42
REMARK H PARENT 13 14 32 33
ROOT
ATOM      1  N   UNL     1     -40.193  51.066  13.406  1.00  0.00    -0.255 NA
ATOM      2  N   UNL     1     -44.657  49.545  12.484  1.00  0.00    -0.192 NA
ATOM      3  C   UNL     1     -40.472  49.238  14.950  1.00  0.00     0.027 A 
ATOM      4  C   UNL     1     -41.770  49.033  14.465  1.00  0.00     0.068 A 
ATOM      5  C   UNL     1     -39.707  50.280  14.385  1.00  0.00     0.076 A 
ATOM      6  C   UNL     1     -39.933  48.436  15.971  1.00  0.00     0.042 A 
ATOM      7  C   UNL     1     -38.640  48.662  16.436  1.00  0.00     0.084 A 
ATOM      8  C   UNL     1     -37.882  49.687  15.883  1.00  0.00     0.144 A 
ATOM      9  C   UNL     1     -38.418  50.484  14.868  1.00  0.00     0.077 A 
ATOM     10  C   UNL     1     -42.273  49.841  13.455  1.00  0.00     0.094 A 
ATOM     11  C   UNL     1     -41.450  50.835  12.964  1.00  0.00     0.133 A 
ATOM     12  C   UNL     1     -43.589  49.678  12.919  1.00  0.00     0.103 C 
ENDROOT
BRANCH   4  13
ATOM     13  N   UNL     1     -42.586  47.999  14.994  1.00  0.00    -0.354 N 
ATOM     14  H   UNL     1     -43.191  47.580  14.293  1.00  0.00     0.167 HD
BRANCH  13  15
ATOM     15  C   UNL     1     -42.706  47.456  16.281  1.00  0.00     0.040 A 
ATOM     16  C   UNL     1     -41.907  45.963  18.013  1.00  0.00     0.085 A 
ATOM     17  C   UNL     1     -41.787  46.503  16.733  1.00  0.00     0.050 A 
ATOM     18  C   UNL     1     -42.947  46.372  18.849  1.00  0.00     0.138 A 
ATOM     19  C   UNL     1     -43.867  47.320  18.403  1.00  0.00     0.050 A 
ATOM     20  C   UNL     1     -43.747  47.860  17.123  1.00  0.00     0.030 A 
ATOM     21  Cl  UNL     1     -40.755  44.791  18.538  1.00  0.00    -0.080 Cl
BRANCH  18  22
ATOM     22  O   UNL     1     -43.087  45.861  20.105  1.00  0.00    -0.486 OA
BRANCH  22  23
ATOM     23  C   UNL     1     -43.945  44.730  20.250  1.00  0.00     0.285 C 
BRANCH  23  24
ATOM     24  C   UNL     1     -43.203  43.644  20.972  1.00  0.00     0.078 A 
ATOM     25  N   UNL     1     -42.139  44.031  21.704  1.00  0.00    -0.258 NA
ATOM     26  C   UNL     1     -43.640  42.339  20.853  1.00  0.00     0.027 A 
ATOM     27  C   UNL     1     -41.475  43.049  22.352  1.00  0.00     0.111 A 
ATOM     28  C   UNL     1     -42.932  41.356  21.535  1.00  0.00     0.004 A 
ATOM     29  C   UNL     1     -41.827  41.710  22.302  1.00  0.00     0.020 A 
ENDBRANCH  23  24
ENDBRANCH  22  23
ENDBRANCH  18  22
ENDBRANCH  13  15
ENDBRANCH   4  13
BRANCH   7  30
ATOM     30  N   UNL     1     -38.121  47.856  17.451  1.00  0.00    -0.319 N 
ATOM     31  C   UNL     1     -38.528  47.787  18.790  1.00  0.00     0.248 C 
ATOM     32  O   UNL     1     -39.424  48.431  19.325  1.00  0.00    -0.270 OA
ATOM     33  H   UNL     1     -37.355  47.251  17.162  1.00  0.00     0.170 HD
BRANCH  31  34
ATOM     34  C   UNL     1     -37.719  46.796  19.561  1.00  0.00     0.068 C 
ATOM     35  C   UNL     1     -38.062  46.464  20.814  1.00  0.00    -0.006 C 
BRANCH  35  36
ATOM     36  C   UNL     1     -37.300  45.471  21.638  1.00  0.00     0.111 C 
BRANCH  36  37
ATOM     37  N   UNL     1     -36.328  46.128  22.505  1.00  0.00    -0.306 NA
ATOM     38  C   UNL     1     -36.791  47.466  22.876  1.00  0.00     0.105 C 
ATOM     39  C   UNL     1     -35.022  46.207  21.849  1.00  0.00     0.105 C 
ENDBRANCH  36  37
ENDBRANCH  35  36
ENDBRANCH  31  34
ENDBRANCH   7  30
BRANCH   8  40
ATOM     40  O   UNL     1     -36.613  49.934  16.317  1.00  0.00    -0.492 OA
BRANCH  40  41
ATOM     41  C   UNL     1     -36.372  51.201  16.924  1.00  0.00     0.226 C 
ATOM     42  C   UNL     1     -35.212  51.872  16.220  1.00  0.00     0.049 C 
ENDBRANCH  40  41
ENDBRANCH   8  40
TORSDOF 11
ENDMDL
