MODEL 1
REMARK VINA RESULT:    -8.297      0.000      0.000
REMARK INTER + INTRA:          -9.905
REMARK INTER:                  -9.752
REMARK INTRA:                  -0.153
REMARK UNBOUND:                -0.153
REMARK SMILES CN1C(N)=N[C@](C)(c2cc(NC(=O)c3ccc(F)cn3)ccc2F)CS1(=O)=O
REMARK SMILES IDX 8 1 9 2 10 3 21 4 22 5 23 6 24 7 6 8 25 9 5 10 26 11 3 12
REMARK SMILES IDX 27 13 2 14 28 15 4 16 7 17 1 18 11 21 12 22 13 23 14 25
REMARK SMILES IDX 20 26 15 27 19 28 16 29 17 30 18 31
REMARK H PARENT 4 19 4 20 11 24
ROOT
ATOM      1  C   UNL     1      24.054  12.610  20.762  1.00  0.00     0.018 A 
ATOM      2  C   UNL     1      23.529  12.335  22.023  1.00  0.00     0.035 A 
ATOM      3  C   UNL     1      22.695  11.265  22.257  1.00  0.00     0.042 A 
ATOM      4  C   UNL     1      22.326  10.421  21.216  1.00  0.00     0.029 A 
ATOM      5  C   UNL     1      22.841  10.677  19.958  1.00  0.00     0.042 A 
ATOM      6  C   UNL     1      23.702  11.735  19.745  1.00  0.00     0.129 A 
ATOM      7  F   UNL     1      24.216  11.947  18.507  1.00  0.00    -0.207 F 
ENDROOT
BRANCH   1   8
ATOM      8  C   UNL     1      24.976  13.798  20.537  1.00  0.00     0.105 C 
ATOM      9  C   UNL     1      26.314  13.463  19.917  1.00  0.00     0.195 C 
ATOM     10  N   UNL     1      25.169  14.582  21.756  1.00  0.00    -0.240 NA
ATOM     11  S   UNL     1      27.262  12.422  20.998  1.00  0.00     0.239 S 
ATOM     12  C   UNL     1      26.024  14.228  22.665  1.00  0.00     0.205 C 
ATOM     13  O   UNL     1      28.660  12.683  20.703  1.00  0.00    -0.206 OA
ATOM     14  N   UNL     1      26.919  13.144  22.522  1.00  0.00    -0.243 N 
ATOM     15  O   UNL     1      26.694  11.115  21.103  1.00  0.00    -0.206 OA
ATOM     16  N   UNL     1      26.152  14.901  23.850  1.00  0.00    -0.369 N 
ATOM     17  C   UNL     1      24.283  14.790  19.598  1.00  0.00     0.044 C 
ATOM     18  C   UNL     1      27.798  12.678  23.613  1.00  0.00     0.167 C 
ATOM     19  H   UNL     1      25.571  15.673  24.042  1.00  0.00     0.159 HD
ATOM     20  H   UNL     1      26.825  14.615  24.509  1.00  0.00     0.159 HD
ENDBRANCH   1   8
BRANCH   3  21
ATOM     21  N   UNL     1      22.235  11.102  23.570  1.00  0.00    -0.321 N 
ATOM     22  C   UNL     1      22.932  11.284  24.751  1.00  0.00     0.274 C 
ATOM     23  O   UNL     1      24.134  11.499  24.834  1.00  0.00    -0.267 OA
ATOM     24  H   UNL     1      21.295  10.824  23.664  1.00  0.00     0.170 HD
BRANCH  22  25
ATOM     25  C   UNL     1      22.109  11.240  25.984  1.00  0.00     0.128 A 
ATOM     26  N   UNL     1      22.595  11.894  27.045  1.00  0.00    -0.248 NA
ATOM     27  C   UNL     1      20.906  10.557  25.989  1.00  0.00     0.037 A 
ATOM     28  C   UNL     1      21.870  11.865  28.175  1.00  0.00     0.151 A 
ATOM     29  C   UNL     1      20.178  10.550  27.166  1.00  0.00     0.043 A 
ATOM     30  C   UNL     1      20.665  11.208  28.279  1.00  0.00     0.141 A 
ATOM     31  F   UNL     1      19.990  11.237  29.441  1.00  0.00    -0.205 F 
ENDBRANCH  22  25
ENDBRANCH   3  21
TORSDOF 3
ENDMDL
MODEL 2
REMARK VINA RESULT:    -8.024      1.854      2.316
REMARK INTER + INTRA:          -9.584
REMARK INTER:                  -9.239
REMARK INTRA:                  -0.345
REMARK UNBOUND:                -0.153
REMARK SMILES CN1C(N)=N[C@](C)(c2cc(NC(=O)c3ccc(F)cn3)ccc2F)CS1(=O)=O
REMARK SMILES IDX 8 1 9 2 10 3 21 4 22 5 23 6 24 7 6 8 25 9 5 10 26 11 3 12
REMARK SMILES IDX 27 13 2 14 28 15 4 16 7 17 1 18 11 21 12 22 13 23 14 25
REMARK SMILES IDX 20 26 15 27 19 28 16 29 17 30 18 31
REMARK H PARENT 4 19 4 20 11 24
ROOT
ATOM      1  C   UNL     1      25.405  13.357  20.658  1.00  0.00     0.018 A 
ATOM      2  C   UNL     1      24.811  12.772  21.775  1.00  0.00     0.035 A 
ATOM      3  C   UNL     1      23.480  12.423  21.804  1.00  0.00     0.042 A 
ATOM      4  C   UNL     1      22.665  12.667  20.706  1.00  0.00     0.029 A 
ATOM      5  C   UNL     1      23.238  13.243  19.586  1.00  0.00     0.042 A 
ATOM      6  C   UNL     1      24.582  13.559  19.560  1.00  0.00     0.129 A 
ATOM      7  F   UNL     1      25.127  14.097  18.438  1.00  0.00    -0.207 F 
ENDROOT
BRANCH   1   8
ATOM      8  C   UNL     1      26.879  13.728  20.656  1.00  0.00     0.105 C 
ATOM      9  C   UNL     1      27.638  13.335  19.408  1.00  0.00     0.195 C 
ATOM     10  N   UNL     1      27.572  13.230  21.843  1.00  0.00    -0.240 NA
ATOM     11  S   UNL     1      27.671  11.570  19.224  1.00  0.00     0.239 S 
ATOM     12  C   UNL     1      27.992  12.005  21.923  1.00  0.00     0.205 C 
ATOM     13  O   UNL     1      28.878  11.253  18.483  1.00  0.00    -0.206 OA
ATOM     14  N   UNL     1      27.931  11.082  20.855  1.00  0.00    -0.243 N 
ATOM     15  O   UNL     1      26.377  11.048  18.913  1.00  0.00    -0.206 OA
ATOM     16  N   UNL     1      28.562  11.501  23.060  1.00  0.00    -0.369 N 
ATOM     17  C   UNL     1      27.006  15.248  20.797  1.00  0.00     0.044 C 
ATOM     18  C   UNL     1      28.296   9.659  20.999  1.00  0.00     0.167 C 
ATOM     19  H   UNL     1      28.650  12.068  23.860  1.00  0.00     0.159 HD
ATOM     20  H   UNL     1      28.886  10.571  23.079  1.00  0.00     0.159 HD
ENDBRANCH   1   8
BRANCH   3  21
ATOM     21  N   UNL     1      23.008  11.846  22.990  1.00  0.00    -0.321 N 
ATOM     22  C   UNL     1      22.508  12.482  24.113  1.00  0.00     0.274 C 
ATOM     23  O   UNL     1      22.518  13.692  24.300  1.00  0.00    -0.267 OA
ATOM     24  H   UNL     1      23.035  10.863  23.030  1.00  0.00     0.170 HD
BRANCH  22  25
ATOM     25  C   UNL     1      21.890  11.589  25.124  1.00  0.00     0.128 A 
ATOM     26  N   UNL     1      21.378  12.184  26.206  1.00  0.00    -0.248 NA
ATOM     27  C   UNL     1      21.860  10.222  24.911  1.00  0.00     0.037 A 
ATOM     28  C   UNL     1      20.817  11.396  27.137  1.00  0.00     0.151 A 
ATOM     29  C   UNL     1      21.270   9.437  25.886  1.00  0.00     0.043 A 
ATOM     30  C   UNL     1      20.744  10.027  27.019  1.00  0.00     0.141 A 
ATOM     31  F   UNL     1      20.153   9.306  27.988  1.00  0.00    -0.205 F 
ENDBRANCH  22  25
ENDBRANCH   3  21
TORSDOF 3
ENDMDL
MODEL 3
REMARK VINA RESULT:    -7.988      7.371     10.690
REMARK INTER + INTRA:          -9.542
REMARK INTER:                  -9.257
REMARK INTRA:                  -0.285
REMARK UNBOUND:                -0.153
REMARK SMILES CN1C(N)=N[C@](C)(c2cc(NC(=O)c3ccc(F)cn3)ccc2F)CS1(=O)=O
REMARK SMILES IDX 8 1 9 2 10 3 21 4 22 5 23 6 24 7 6 8 25 9 5 10 26 11 3 12
REMARK SMILES IDX 27 13 2 14 28 15 4 16 7 17 1 18 11 21 12 22 13 23 14 25
REMARK SMILES IDX 20 26 15 27 19 28 16 29 17 30 18 31
REMARK H PARENT 4 19 4 20 11 24
ROOT
ATOM      1  C   UNL     1      22.593   8.822  16.723  1.00  0.00     0.018 A 
ATOM      2  C   UNL     1      23.812   8.297  16.296  1.00  0.00     0.035 A 
ATOM      3  C   UNL     1      24.987   9.011  16.368  1.00  0.00     0.042 A 
ATOM      4  C   UNL     1      24.991  10.310  16.859  1.00  0.00     0.029 A 
ATOM      5  C   UNL     1      23.791  10.846  17.291  1.00  0.00     0.042 A 
ATOM      6  C   UNL     1      22.626  10.107  17.242  1.00  0.00     0.129 A 
ATOM      7  F   UNL     1      21.467  10.646  17.700  1.00  0.00    -0.207 F 
ENDROOT
BRANCH   1   8
ATOM      8  C   UNL     1      21.312   8.007  16.633  1.00  0.00     0.105 C 
ATOM      9  C   UNL     1      20.490   7.964  17.902  1.00  0.00     0.195 C 
ATOM     10  N   UNL     1      21.558   6.650  16.148  1.00  0.00    -0.240 NA
ATOM     11  S   UNL     1      21.387   7.155  19.203  1.00  0.00     0.239 S 
ATOM     12  C   UNL     1      21.975   5.709  16.937  1.00  0.00     0.205 C 
ATOM     13  O   UNL     1      20.396   6.573  20.090  1.00  0.00    -0.206 OA
ATOM     14  N   UNL     1      22.117   5.860  18.334  1.00  0.00    -0.243 N 
ATOM     15  O   UNL     1      22.498   7.940  19.644  1.00  0.00    -0.206 OA
ATOM     16  N   UNL     1      22.293   4.458  16.479  1.00  0.00    -0.369 N 
ATOM     17  C   UNL     1      20.421   8.606  15.541  1.00  0.00     0.044 C 
ATOM     18  C   UNL     1      22.709   4.822  19.200  1.00  0.00     0.167 C 
ATOM     19  H   UNL     1      22.226   4.255  15.518  1.00  0.00     0.159 HD
ATOM     20  H   UNL     1      22.589   3.763  17.110  1.00  0.00     0.159 HD
ENDBRANCH   1   8
BRANCH   3  21
ATOM     21  N   UNL     1      26.141   8.368  15.902  1.00  0.00    -0.321 N 
ATOM     22  C   UNL     1      27.330   8.147  16.575  1.00  0.00     0.274 C 
ATOM     23  O   UNL     1      27.613   8.606  17.674  1.00  0.00    -0.267 OA
ATOM     24  H   UNL     1      26.101   8.030  14.978  1.00  0.00     0.170 HD
BRANCH  22  25
ATOM     25  C   UNL     1      28.290   7.251  15.886  1.00  0.00     0.128 A 
ATOM     26  N   UNL     1      29.516   7.744  15.678  1.00  0.00    -0.248 NA
ATOM     27  C   UNL     1      27.899   5.979  15.506  1.00  0.00     0.037 A 
ATOM     28  C   UNL     1      30.402   6.952  15.052  1.00  0.00     0.151 A 
ATOM     29  C   UNL     1      28.836   5.186  14.868  1.00  0.00     0.043 A 
ATOM     30  C   UNL     1      30.105   5.676  14.631  1.00  0.00     0.141 A 
ATOM     31  F   UNL     1      31.051   4.938  14.024  1.00  0.00    -0.205 F 
ENDBRANCH  22  25
ENDBRANCH   3  21
TORSDOF 3
ENDMDL
MODEL 4
REMARK VINA RESULT:    -7.904      2.517      3.841
REMARK INTER + INTRA:          -9.443
REMARK INTER:                  -9.006
REMARK INTRA:                  -0.437
REMARK UNBOUND:                -0.153
REMARK SMILES CN1C(N)=N[C@](C)(c2cc(NC(=O)c3ccc(F)cn3)ccc2F)CS1(=O)=O
REMARK SMILES IDX 8 1 9 2 10 3 21 4 22 5 23 6 24 7 6 8 25 9 5 10 26 11 3 12
REMARK SMILES IDX 27 13 2 14 28 15 4 16 7 17 1 18 11 21 12 22 13 23 14 25
REMARK SMILES IDX 20 26 15 27 19 28 16 29 17 30 18 31
REMARK H PARENT 4 19 4 20 11 24
ROOT
ATOM      1  C   UNL     1      26.337  12.646  21.827  1.00  0.00     0.018 A 
ATOM      2  C   UNL     1      25.403  12.218  22.769  1.00  0.00     0.035 A 
ATOM      3  C   UNL     1      25.363  12.724  24.048  1.00  0.00     0.042 A 
ATOM      4  C   UNL     1      26.284  13.681  24.455  1.00  0.00     0.029 A 
ATOM      5  C   UNL     1      27.216  14.120  23.532  1.00  0.00     0.042 A 
ATOM      6  C   UNL     1      27.225  13.627  22.243  1.00  0.00     0.129 A 
ATOM      7  F   UNL     1      28.132  14.096  21.347  1.00  0.00    -0.207 F 
ENDROOT
BRANCH   1   8
ATOM      8  C   UNL     1      26.354  12.069  20.420  1.00  0.00     0.105 C 
ATOM      9  C   UNL     1      26.281  13.091  19.307  1.00  0.00     0.195 C 
ATOM     10  N   UNL     1      25.324  11.049  20.233  1.00  0.00    -0.240 NA
ATOM     11  S   UNL     1      24.738  13.967  19.361  1.00  0.00     0.239 S 
ATOM     12  C   UNL     1      24.093  11.363  19.973  1.00  0.00     0.205 C 
ATOM     13  O   UNL     1      24.455  14.390  18.002  1.00  0.00    -0.206 OA
ATOM     14  N   UNL     1      23.653  12.684  19.733  1.00  0.00    -0.243 N 
ATOM     15  O   UNL     1      24.658  14.824  20.503  1.00  0.00    -0.206 OA
ATOM     16  N   UNL     1      23.102  10.422  19.883  1.00  0.00    -0.369 N 
ATOM     17  C   UNL     1      27.654  11.284  20.223  1.00  0.00     0.044 C 
ATOM     18  C   UNL     1      22.230  13.040  19.563  1.00  0.00     0.167 C 
ATOM     19  H   UNL     1      23.310   9.472  20.035  1.00  0.00     0.159 HD
ATOM     20  H   UNL     1      22.181  10.696  19.667  1.00  0.00     0.159 HD
ENDBRANCH   1   8
BRANCH   3  21
ATOM     21  N   UNL     1      24.376  12.207  24.897  1.00  0.00    -0.321 N 
ATOM     22  C   UNL     1      23.060  12.613  25.030  1.00  0.00     0.274 C 
ATOM     23  O   UNL     1      22.571  13.602  24.500  1.00  0.00    -0.267 OA
ATOM     24  H   UNL     1      24.655  11.458  25.473  1.00  0.00     0.170 HD
BRANCH  22  25
ATOM     25  C   UNL     1      22.205  11.729  25.860  1.00  0.00     0.128 A 
ATOM     26  N   UNL     1      22.107  12.047  27.155  1.00  0.00    -0.248 NA
ATOM     27  C   UNL     1      21.556  10.653  25.280  1.00  0.00     0.037 A 
ATOM     28  C   UNL     1      21.341  11.258  27.928  1.00  0.00     0.151 A 
ATOM     29  C   UNL     1      20.770   9.864  26.101  1.00  0.00     0.043 A 
ATOM     30  C   UNL     1      20.661  10.163  27.446  1.00  0.00     0.141 A 
ATOM     31  F   UNL     1      19.903   9.431  28.279  1.00  0.00    -0.205 F 
ENDBRANCH  22  25
ENDBRANCH   3  21
TORSDOF 3
ENDMDL
MODEL 5
REMARK VINA RESULT:    -7.667      4.799      7.185
REMARK INTER + INTRA:          -9.164
REMARK INTER:                  -8.932
REMARK INTRA:                  -0.232
REMARK UNBOUND:                -0.153
REMARK SMILES CN1C(N)=N[C@](C)(c2cc(NC(=O)c3ccc(F)cn3)ccc2F)CS1(=O)=O
REMARK SMILES IDX 8 1 9 2 10 3 21 4 22 5 23 6 24 7 6 8 25 9 5 10 26 11 3 12
REMARK SMILES IDX 27 13 2 14 28 15 4 16 7 17 1 18 11 21 12 22 13 23 14 25
REMARK SMILES IDX 20 26 15 27 19 28 16 29 17 30 18 31
REMARK H PARENT 4 19 4 20 11 24
ROOT
ATOM      1  C   UNL     1      23.670  12.129  20.181  1.00  0.00     0.018 A 
ATOM      2  C   UNL     1      23.220  10.847  19.869  1.00  0.00     0.035 A 
ATOM      3  C   UNL     1      22.622  10.029  20.802  1.00  0.00     0.042 A 
ATOM      4  C   UNL     1      22.465  10.457  22.114  1.00  0.00     0.029 A 
ATOM      5  C   UNL     1      22.902  11.728  22.441  1.00  0.00     0.042 A 
ATOM      6  C   UNL     1      23.471  12.549  21.487  1.00  0.00     0.129 A 
ATOM      7  F   UNL     1      23.865  13.804  21.827  1.00  0.00    -0.207 F 
ENDROOT
BRANCH   1   8
ATOM      8  C   UNL     1      24.323  13.010  19.128  1.00  0.00     0.105 C 
ATOM      9  C   UNL     1      23.691  14.372  18.948  1.00  0.00     0.195 C 
ATOM     10  N   UNL     1      24.431  12.332  17.836  1.00  0.00    -0.240 NA
ATOM     11  S   UNL     1      22.023  14.216  18.360  1.00  0.00     0.239 S 
ATOM     12  C   UNL     1      23.431  12.273  17.012  1.00  0.00     0.205 C 
ATOM     13  O   UNL     1      21.733  15.426  17.612  1.00  0.00    -0.206 OA
ATOM     14  N   UNL     1      22.203  12.941  17.217  1.00  0.00    -0.243 N 
ATOM     15  O   UNL     1      21.162  13.662  19.357  1.00  0.00    -0.206 OA
ATOM     16  N   UNL     1      23.491  11.568  15.840  1.00  0.00    -0.369 N 
ATOM     17  C   UNL     1      25.786  13.242  19.516  1.00  0.00     0.044 C 
ATOM     18  C   UNL     1      21.034  12.764  16.334  1.00  0.00     0.167 C 
ATOM     19  H   UNL     1      24.307  11.068  15.608  1.00  0.00     0.159 HD
ATOM     20  H   UNL     1      22.718  11.560  15.230  1.00  0.00     0.159 HD
ENDBRANCH   1   8
BRANCH   3  21
ATOM     21  N   UNL     1      22.219   8.763  20.359  1.00  0.00    -0.321 N 
ATOM     22  C   UNL     1      21.479   8.444  19.234  1.00  0.00     0.274 C 
ATOM     23  O   UNL     1      20.937   9.254  18.494  1.00  0.00    -0.267 OA
ATOM     24  H   UNL     1      22.497   8.003  20.920  1.00  0.00     0.170 HD
BRANCH  22  25
ATOM     25  C   UNL     1      21.394   6.996  18.922  1.00  0.00     0.128 A 
ATOM     26  N   UNL     1      20.164   6.488  18.796  1.00  0.00    -0.248 NA
ATOM     27  C   UNL     1      22.552   6.253  18.768  1.00  0.00     0.037 A 
ATOM     28  C   UNL     1      20.061   5.178  18.517  1.00  0.00     0.151 A 
ATOM     29  C   UNL     1      22.414   4.908  18.475  1.00  0.00     0.043 A 
ATOM     30  C   UNL     1      21.153   4.357  18.352  1.00  0.00     0.141 A 
ATOM     31  F   UNL     1      20.970   3.058  18.059  1.00  0.00    -0.205 F 
ENDBRANCH  22  25
ENDBRANCH   3  21
TORSDOF 3
ENDMDL
MODEL 6
REMARK VINA RESULT:    -7.410      4.360      6.668
REMARK INTER + INTRA:          -8.862
REMARK INTER:                  -8.504
REMARK INTRA:                  -0.358
REMARK UNBOUND:                -0.153
REMARK SMILES CN1C(N)=N[C@](C)(c2cc(NC(=O)c3ccc(F)cn3)ccc2F)CS1(=O)=O
REMARK SMILES IDX 8 1 9 2 10 3 21 4 22 5 23 6 24 7 6 8 25 9 5 10 26 11 3 12
REMARK SMILES IDX 27 13 2 14 28 15 4 16 7 17 1 18 11 21 12 22 13 23 14 25
REMARK SMILES IDX 20 26 15 27 19 28 16 29 17 30 18 31
REMARK H PARENT 4 19 4 20 11 24
ROOT
ATOM      1  C   UNL     1      24.842  11.522  20.948  1.00  0.00     0.018 A 
ATOM      2  C   UNL     1      24.376  10.253  20.604  1.00  0.00     0.035 A 
ATOM      3  C   UNL     1      23.102   9.830  20.905  1.00  0.00     0.042 A 
ATOM      4  C   UNL     1      22.229  10.663  21.594  1.00  0.00     0.029 A 
ATOM      5  C   UNL     1      22.672  11.926  21.941  1.00  0.00     0.042 A 
ATOM      6  C   UNL     1      23.943  12.349  21.604  1.00  0.00     0.129 A 
ATOM      7  F   UNL     1      24.344  13.605  21.930  1.00  0.00    -0.207 F 
ENDROOT
BRANCH   1   8
ATOM      8  C   UNL     1      26.255  11.961  20.599  1.00  0.00     0.105 C 
ATOM      9  C   UNL     1      26.347  13.211  19.753  1.00  0.00     0.195 C 
ATOM     10  N   UNL     1      27.029  10.883  19.986  1.00  0.00    -0.240 NA
ATOM     11  S   UNL     1      25.606  12.948  18.162  1.00  0.00     0.239 S 
ATOM     12  C   UNL     1      26.921  10.598  18.725  1.00  0.00     0.205 C 
ATOM     13  O   UNL     1      26.276  13.847  17.239  1.00  0.00    -0.206 OA
ATOM     14  N   UNL     1      26.155  11.355  17.811  1.00  0.00    -0.243 N 
ATOM     15  O   UNL     1      24.186  12.807  18.258  1.00  0.00    -0.206 OA
ATOM     16  N   UNL     1      27.572   9.535  18.157  1.00  0.00    -0.369 N 
ATOM     17  C   UNL     1      27.021  12.239  21.895  1.00  0.00     0.044 C 
ATOM     18  C   UNL     1      25.942  10.948  16.408  1.00  0.00     0.167 C 
ATOM     19  H   UNL     1      28.132   8.947  18.714  1.00  0.00     0.159 HD
ATOM     20  H   UNL     1      27.481   9.360  17.192  1.00  0.00     0.159 HD
ENDBRANCH   1   8
BRANCH   3  21
ATOM     21  N   UNL     1      22.760   8.532  20.505  1.00  0.00    -0.321 N 
ATOM     22  C   UNL     1      21.893   8.144  19.499  1.00  0.00     0.274 C 
ATOM     23  O   UNL     1      21.168   8.900  18.865  1.00  0.00    -0.267 OA
ATOM     24  H   UNL     1      23.194   7.801  21.003  1.00  0.00     0.170 HD
BRANCH  22  25
ATOM     25  C   UNL     1      21.903   6.697  19.177  1.00  0.00     0.128 A 
ATOM     26  N   UNL     1      21.097   5.921  19.909  1.00  0.00    -0.248 NA
ATOM     27  C   UNL     1      22.711   6.221  18.158  1.00  0.00     0.037 A 
ATOM     28  C   UNL     1      21.092   4.605  19.638  1.00  0.00     0.151 A 
ATOM     29  C   UNL     1      22.679   4.862  17.899  1.00  0.00     0.043 A 
ATOM     30  C   UNL     1      21.864   4.037  18.650  1.00  0.00     0.141 A 
ATOM     31  F   UNL     1      21.793   2.714  18.428  1.00  0.00    -0.205 F 
ENDBRANCH  22  25
ENDBRANCH   3  21
TORSDOF 3
ENDMDL
MODEL 7
REMARK VINA RESULT:    -7.293      4.169      5.654
REMARK INTER + INTRA:          -8.725
REMARK INTER:                  -9.064
REMARK INTRA:                   0.339
REMARK UNBOUND:                -0.153
REMARK SMILES CN1C(N)=N[C@](C)(c2cc(NC(=O)c3ccc(F)cn3)ccc2F)CS1(=O)=O
REMARK SMILES IDX 8 1 9 2 10 3 21 4 22 5 23 6 24 7 6 8 25 9 5 10 26 11 3 12
REMARK SMILES IDX 27 13 2 14 28 15 4 16 7 17 1 18 11 21 12 22 13 23 14 25
REMARK SMILES IDX 20 26 15 27 19 28 16 29 17 30 18 31
REMARK H PARENT 4 19 4 20 11 24
ROOT
ATOM      1  C   UNL     1      23.031  10.081  18.868  1.00  0.00     0.018 A 
ATOM      2  C   UNL     1      22.638  10.066  20.206  1.00  0.00     0.035 A 
ATOM      3  C   UNL     1      23.527  10.271  21.237  1.00  0.00     0.042 A 
ATOM      4  C   UNL     1      24.874  10.481  20.972  1.00  0.00     0.029 A 
ATOM      5  C   UNL     1      25.282  10.502  19.650  1.00  0.00     0.042 A 
ATOM      6  C   UNL     1      24.373  10.327  18.625  1.00  0.00     0.129 A 
ATOM      7  F   UNL     1      24.794  10.382  17.335  1.00  0.00    -0.207 F 
ENDROOT
BRANCH   1   8
ATOM      8  C   UNL     1      22.024   9.855  17.751  1.00  0.00     0.105 C 
ATOM      9  C   UNL     1      20.853   8.970  18.114  1.00  0.00     0.195 C 
ATOM     10  N   UNL     1      22.661   9.369  16.528  1.00  0.00    -0.240 NA
ATOM     11  S   UNL     1      21.403   7.326  18.495  1.00  0.00     0.239 S 
ATOM     12  C   UNL     1      22.960   8.117  16.367  1.00  0.00     0.205 C 
ATOM     13  O   UNL     1      20.300   6.436  18.179  1.00  0.00    -0.206 OA
ATOM     14  N   UNL     1      22.603   7.100  17.281  1.00  0.00    -0.243 N 
ATOM     15  O   UNL     1      22.143   7.287  19.717  1.00  0.00    -0.206 OA
ATOM     16  N   UNL     1      23.635   7.662  15.266  1.00  0.00    -0.369 N 
ATOM     17  C   UNL     1      21.448  11.208  17.323  1.00  0.00     0.044 C 
ATOM     18  C   UNL     1      23.057   5.701  17.146  1.00  0.00     0.167 C 
ATOM     19  H   UNL     1      23.927   8.296  14.572  1.00  0.00     0.159 HD
ATOM     20  H   UNL     1      23.829   6.702  15.169  1.00  0.00     0.159 HD
ENDBRANCH   1   8
BRANCH   3  21
ATOM     21  N   UNL     1      23.003  10.228  22.535  1.00  0.00    -0.321 N 
ATOM     22  C   UNL     1      22.723  11.286  23.382  1.00  0.00     0.274 C 
ATOM     23  O   UNL     1      23.018  12.454  23.170  1.00  0.00    -0.267 OA
ATOM     24  H   UNL     1      22.808   9.330  22.890  1.00  0.00     0.170 HD
BRANCH  22  25
ATOM     25  C   UNL     1      21.977  10.931  24.613  1.00  0.00     0.128 A 
ATOM     26  N   UNL     1      21.799   9.626  24.843  1.00  0.00    -0.248 NA
ATOM     27  C   UNL     1      21.517  11.929  25.454  1.00  0.00     0.037 A 
ATOM     28  C   UNL     1      21.122   9.280  25.951  1.00  0.00     0.151 A 
ATOM     29  C   UNL     1      20.828  11.541  26.590  1.00  0.00     0.043 A 
ATOM     30  C   UNL     1      20.620  10.199  26.844  1.00  0.00     0.141 A 
ATOM     31  F   UNL     1      19.966   9.775  27.938  1.00  0.00    -0.205 F 
ENDBRANCH  22  25
ENDBRANCH   3  21
TORSDOF 3
ENDMDL
MODEL 8
REMARK VINA RESULT:    -7.257      6.598      8.237
REMARK INTER + INTRA:          -8.682
REMARK INTER:                  -8.493
REMARK INTRA:                  -0.190
REMARK UNBOUND:                -0.153
REMARK SMILES CN1C(N)=N[C@](C)(c2cc(NC(=O)c3ccc(F)cn3)ccc2F)CS1(=O)=O
REMARK SMILES IDX 8 1 9 2 10 3 21 4 22 5 23 6 24 7 6 8 25 9 5 10 26 11 3 12
REMARK SMILES IDX 27 13 2 14 28 15 4 16 7 17 1 18 11 21 12 22 13 23 14 25
REMARK SMILES IDX 20 26 15 27 19 28 16 29 17 30 18 31
REMARK H PARENT 4 19 4 20 11 24
ROOT
ATOM      1  C   UNL     1      24.133   6.827  14.900  1.00  0.00     0.018 A 
ATOM      2  C   UNL     1      23.923   7.798  15.878  1.00  0.00     0.035 A 
ATOM      3  C   UNL     1      23.351   7.506  17.095  1.00  0.00     0.042 A 
ATOM      4  C   UNL     1      22.937   6.212  17.385  1.00  0.00     0.029 A 
ATOM      5  C   UNL     1      23.140   5.234  16.427  1.00  0.00     0.042 A 
ATOM      6  C   UNL     1      23.744   5.536  15.222  1.00  0.00     0.129 A 
ATOM      7  F   UNL     1      23.958   4.553  14.311  1.00  0.00    -0.207 F 
ENDROOT
BRANCH   1   8
ATOM      8  C   UNL     1      24.770   7.182  13.565  1.00  0.00     0.105 C 
ATOM      9  C   UNL     1      25.858   6.238  13.104  1.00  0.00     0.195 C 
ATOM     10  N   UNL     1      25.256   8.560  13.538  1.00  0.00    -0.240 NA
ATOM     11  S   UNL     1      27.234   6.273  14.226  1.00  0.00     0.239 S 
ATOM     12  C   UNL     1      26.401   8.890  14.050  1.00  0.00     0.205 C 
ATOM     13  O   UNL     1      28.411   5.926  13.448  1.00  0.00    -0.206 OA
ATOM     14  N   UNL     1      27.327   7.957  14.568  1.00  0.00    -0.243 N 
ATOM     15  O   UNL     1      26.902   5.685  15.486  1.00  0.00    -0.206 OA
ATOM     16  N   UNL     1      26.828  10.189  14.111  1.00  0.00    -0.369 N 
ATOM     17  C   UNL     1      23.686   7.179  12.483  1.00  0.00     0.044 C 
ATOM     18  C   UNL     1      28.569   8.356  15.260  1.00  0.00     0.167 C 
ATOM     19  H   UNL     1      26.252  10.913  13.774  1.00  0.00     0.159 HD
ATOM     20  H   UNL     1      27.712  10.400  14.490  1.00  0.00     0.159 HD
ENDBRANCH   1   8
BRANCH   3  21
ATOM     21  N   UNL     1      23.195   8.574  17.988  1.00  0.00    -0.321 N 
ATOM     22  C   UNL     1      22.042   8.996  18.626  1.00  0.00     0.274 C 
ATOM     23  O   UNL     1      20.917   8.567  18.404  1.00  0.00    -0.267 OA
ATOM     24  H   UNL     1      24.010   9.089  18.188  1.00  0.00     0.170 HD
BRANCH  22  25
ATOM     25  C   UNL     1      22.240  10.025  19.675  1.00  0.00     0.128 A 
ATOM     26  N   UNL     1      22.355  11.289  19.253  1.00  0.00    -0.248 NA
ATOM     27  C   UNL     1      22.286   9.653  21.008  1.00  0.00     0.037 A 
ATOM     28  C   UNL     1      22.538  12.238  20.186  1.00  0.00     0.151 A 
ATOM     29  C   UNL     1      22.470  10.654  21.945  1.00  0.00     0.043 A 
ATOM     30  C   UNL     1      22.604  11.966  21.533  1.00  0.00     0.141 A 
ATOM     31  F   UNL     1      22.775  12.972  22.408  1.00  0.00    -0.205 F 
ENDBRANCH  22  25
ENDBRANCH   3  21
TORSDOF 3
ENDMDL
MODEL 9
REMARK VINA RESULT:    -7.247      4.584      6.164
REMARK INTER + INTRA:          -8.671
REMARK INTER:                  -8.426
REMARK INTRA:                  -0.244
REMARK UNBOUND:                -0.153
REMARK SMILES CN1C(N)=N[C@](C)(c2cc(NC(=O)c3ccc(F)cn3)ccc2F)CS1(=O)=O
REMARK SMILES IDX 8 1 9 2 10 3 21 4 22 5 23 6 24 7 6 8 25 9 5 10 26 11 3 12
REMARK SMILES IDX 27 13 2 14 28 15 4 16 7 17 1 18 11 21 12 22 13 23 14 25
REMARK SMILES IDX 20 26 15 27 19 28 16 29 17 30 18 31
REMARK H PARENT 4 19 4 20 11 24
ROOT
ATOM      1  C   UNL     1      21.608   8.200  17.204  1.00  0.00     0.018 A 
ATOM      2  C   UNL     1      21.830   8.825  18.430  1.00  0.00     0.035 A 
ATOM      3  C   UNL     1      22.098   8.116  19.580  1.00  0.00     0.042 A 
ATOM      4  C   UNL     1      22.134   6.728  19.558  1.00  0.00     0.029 A 
ATOM      5  C   UNL     1      21.919   6.091  18.349  1.00  0.00     0.042 A 
ATOM      6  C   UNL     1      21.684   6.815  17.197  1.00  0.00     0.129 A 
ATOM      7  F   UNL     1      21.505   6.167  16.018  1.00  0.00    -0.207 F 
ENDROOT
BRANCH   1   8
ATOM      8  C   UNL     1      21.318   9.011  15.951  1.00  0.00     0.105 C 
ATOM      9  C   UNL     1      22.305   8.819  14.821  1.00  0.00     0.195 C 
ATOM     10  N   UNL     1      21.160  10.434  16.243  1.00  0.00    -0.240 NA
ATOM     11  S   UNL     1      23.920   9.382  15.296  1.00  0.00     0.239 S 
ATOM     12  C   UNL     1      22.183  11.219  16.384  1.00  0.00     0.205 C 
ATOM     13  O   UNL     1      24.592   9.788  14.075  1.00  0.00    -0.206 OA
ATOM     14  N   UNL     1      23.519  10.817  16.158  1.00  0.00    -0.243 N 
ATOM     15  O   UNL     1      24.502   8.536  16.291  1.00  0.00    -0.206 OA
ATOM     16  N   UNL     1      22.052  12.533  16.744  1.00  0.00    -0.369 N 
ATOM     17  C   UNL     1      19.939   8.615  15.414  1.00  0.00     0.044 C 
ATOM     18  C   UNL     1      24.679  11.684  16.443  1.00  0.00     0.167 C 
ATOM     19  H   UNL     1      21.160  12.908  16.923  1.00  0.00     0.159 HD
ATOM     20  H   UNL     1      22.851  13.104  16.824  1.00  0.00     0.159 HD
ENDBRANCH   1   8
BRANCH   3  21
ATOM     21  N   UNL     1      22.299   8.866  20.746  1.00  0.00    -0.321 N 
ATOM     22  C   UNL     1      23.262   9.829  20.991  1.00  0.00     0.274 C 
ATOM     23  O   UNL     1      24.197  10.094  20.247  1.00  0.00    -0.267 OA
ATOM     24  H   UNL     1      21.675   8.684  21.486  1.00  0.00     0.170 HD
BRANCH  22  25
ATOM     25  C   UNL     1      23.085  10.596  22.248  1.00  0.00     0.128 A 
ATOM     26  N   UNL     1      23.306   9.929  23.386  1.00  0.00    -0.248 NA
ATOM     27  C   UNL     1      22.722  11.930  22.198  1.00  0.00     0.037 A 
ATOM     28  C   UNL     1      23.148  10.602  24.537  1.00  0.00     0.151 A 
ATOM     29  C   UNL     1      22.573  12.598  23.400  1.00  0.00     0.043 A 
ATOM     30  C   UNL     1      22.783  11.928  24.590  1.00  0.00     0.141 A 
ATOM     31  F   UNL     1      22.660  12.537  25.782  1.00  0.00    -0.205 F 
ENDBRANCH  22  25
ENDBRANCH   3  21
TORSDOF 3
ENDMDL
MODEL 10
REMARK VINA RESULT:    -7.159      2.370      3.323
REMARK INTER + INTRA:          -8.568
REMARK INTER:                  -8.926
REMARK INTRA:                   0.358
REMARK UNBOUND:                -0.153
REMARK SMILES CN1C(N)=N[C@](C)(c2cc(NC(=O)c3ccc(F)cn3)ccc2F)CS1(=O)=O
REMARK SMILES IDX 8 1 9 2 10 3 21 4 22 5 23 6 24 7 6 8 25 9 5 10 26 11 3 12
REMARK SMILES IDX 27 13 2 14 28 15 4 16 7 17 1 18 11 21 12 22 13 23 14 25
REMARK SMILES IDX 20 26 15 27 19 28 16 29 17 30 18 31
REMARK H PARENT 4 19 4 20 11 24
ROOT
ATOM      1  C   UNL     1      25.548  14.252  22.518  1.00  0.00     0.018 A 
ATOM      2  C   UNL     1      24.514  13.753  23.310  1.00  0.00     0.035 A 
ATOM      3  C   UNL     1      24.643  13.587  24.670  1.00  0.00     0.042 A 
ATOM      4  C   UNL     1      25.838  13.898  25.307  1.00  0.00     0.029 A 
ATOM      5  C   UNL     1      26.874  14.397  24.537  1.00  0.00     0.042 A 
ATOM      6  C   UNL     1      26.720  14.588  23.178  1.00  0.00     0.129 A 
ATOM      7  F   UNL     1      27.742  15.108  22.451  1.00  0.00    -0.207 F 
ENDROOT
BRANCH   1   8
ATOM      8  C   UNL     1      25.374  14.426  21.018  1.00  0.00     0.105 C 
ATOM      9  C   UNL     1      24.346  13.516  20.382  1.00  0.00     0.195 C 
ATOM     10  N   UNL     1      26.645  14.325  20.302  1.00  0.00    -0.240 NA
ATOM     11  S   UNL     1      24.835  11.816  20.533  1.00  0.00     0.239 S 
ATOM     12  C   UNL     1      27.167  13.177  20.000  1.00  0.00     0.205 C 
ATOM     13  O   UNL     1      24.239  11.113  19.411  1.00  0.00    -0.206 OA
ATOM     14  N   UNL     1      26.523  11.938  20.218  1.00  0.00    -0.243 N 
ATOM     15  O   UNL     1      24.771  11.367  21.888  1.00  0.00    -0.206 OA
ATOM     16  N   UNL     1      28.398  13.067  19.410  1.00  0.00    -0.369 N 
ATOM     17  C   UNL     1      24.934  15.865  20.735  1.00  0.00     0.044 C 
ATOM     18  C   UNL     1      27.181  10.637  19.984  1.00  0.00     0.167 C 
ATOM     19  H   UNL     1      28.925  13.875  19.217  1.00  0.00     0.159 HD
ATOM     20  H   UNL     1      28.755  12.179  19.178  1.00  0.00     0.159 HD
ENDBRANCH   1   8
BRANCH   3  21
ATOM     21  N   UNL     1      23.530  13.074  25.348  1.00  0.00    -0.321 N 
ATOM     22  C   UNL     1      23.127  11.755  25.460  1.00  0.00     0.274 C 
ATOM     23  O   UNL     1      23.626  10.813  24.858  1.00  0.00    -0.267 OA
ATOM     24  H   UNL     1      22.961  13.737  25.804  1.00  0.00     0.170 HD
BRANCH  22  25
ATOM     25  C   UNL     1      22.024  11.509  26.421  1.00  0.00     0.128 A 
ATOM     26  N   UNL     1      22.265  11.833  27.695  1.00  0.00    -0.248 NA
ATOM     27  C   UNL     1      20.825  10.980  25.976  1.00  0.00     0.037 A 
ATOM     28  C   UNL     1      21.283  11.615  28.585  1.00  0.00     0.151 A 
ATOM     29  C   UNL     1      19.830  10.773  26.915  1.00  0.00     0.043 A 
ATOM     30  C   UNL     1      20.059  11.089  28.240  1.00  0.00     0.141 A 
ATOM     31  F   UNL     1      19.120  10.913  29.186  1.00  0.00    -0.205 F 
ENDBRANCH  22  25
ENDBRANCH   3  21
TORSDOF 3
ENDMDL
MODEL 11
REMARK VINA RESULT:    -7.148      4.958      6.779
REMARK INTER + INTRA:          -8.554
REMARK INTER:                  -8.894
REMARK INTRA:                   0.340
REMARK UNBOUND:                -0.153
REMARK SMILES CN1C(N)=N[C@](C)(c2cc(NC(=O)c3ccc(F)cn3)ccc2F)CS1(=O)=O
REMARK SMILES IDX 8 1 9 2 10 3 21 4 22 5 23 6 24 7 6 8 25 9 5 10 26 11 3 12
REMARK SMILES IDX 27 13 2 14 28 15 4 16 7 17 1 18 11 21 12 22 13 23 14 25
REMARK SMILES IDX 20 26 15 27 19 28 16 29 17 30 18 31
REMARK H PARENT 4 19 4 20 11 24
ROOT
ATOM      1  C   UNL     1      22.703   9.125  17.480  1.00  0.00     0.018 A 
ATOM      2  C   UNL     1      22.650   9.548  18.807  1.00  0.00     0.035 A 
ATOM      3  C   UNL     1      23.728  10.124  19.441  1.00  0.00     0.042 A 
ATOM      4  C   UNL     1      24.934  10.283  18.771  1.00  0.00     0.029 A 
ATOM      5  C   UNL     1      25.005   9.872  17.452  1.00  0.00     0.042 A 
ATOM      6  C   UNL     1      23.906   9.326  16.819  1.00  0.00     0.129 A 
ATOM      7  F   UNL     1      23.993   8.957  15.515  1.00  0.00    -0.207 F 
ENDROOT
BRANCH   1   8
ATOM      8  C   UNL     1      21.494   8.495  16.807  1.00  0.00     0.105 C 
ATOM      9  C   UNL     1      20.503   7.846  17.747  1.00  0.00     0.195 C 
ATOM     10  N   UNL     1      21.878   7.556  15.755  1.00  0.00    -0.240 NA
ATOM     11  S   UNL     1      21.248   6.474  18.593  1.00  0.00     0.239 S 
ATOM     12  C   UNL     1      22.228   6.336  16.025  1.00  0.00     0.205 C 
ATOM     13  O   UNL     1      20.173   5.553  18.914  1.00  0.00    -0.206 OA
ATOM     14  N   UNL     1      22.162   5.767  17.316  1.00  0.00    -0.243 N 
ATOM     15  O   UNL     1      22.241   6.907  19.526  1.00  0.00    -0.206 OA
ATOM     16  N   UNL     1      22.675   5.473  15.060  1.00  0.00    -0.369 N 
ATOM     17  C   UNL     1      20.736   9.581  16.037  1.00  0.00     0.044 C 
ATOM     18  C   UNL     1      22.680   4.421  17.630  1.00  0.00     0.167 C 
ATOM     19  H   UNL     1      22.756   5.777  14.128  1.00  0.00     0.159 HD
ATOM     20  H   UNL     1      22.915   4.549  15.299  1.00  0.00     0.159 HD
ENDBRANCH   1   8
BRANCH   3  21
ATOM     21  N   UNL     1      23.542  10.502  20.776  1.00  0.00    -0.321 N 
ATOM     22  C   UNL     1      22.855  11.598  21.269  1.00  0.00     0.274 C 
ATOM     23  O   UNL     1      22.396  12.506  20.588  1.00  0.00    -0.267 OA
ATOM     24  H   UNL     1      23.951   9.913  21.451  1.00  0.00     0.170 HD
BRANCH  22  25
ATOM     25  C   UNL     1      22.656  11.612  22.739  1.00  0.00     0.128 A 
ATOM     26  N   UNL     1      22.563  12.816  23.313  1.00  0.00    -0.248 NA
ATOM     27  C   UNL     1      22.565  10.419  23.435  1.00  0.00     0.037 A 
ATOM     28  C   UNL     1      22.386  12.853  24.644  1.00  0.00     0.151 A 
ATOM     29  C   UNL     1      22.376  10.491  24.804  1.00  0.00     0.043 A 
ATOM     30  C   UNL     1      22.290  11.723  25.423  1.00  0.00     0.141 A 
ATOM     31  F   UNL     1      22.098  11.842  26.748  1.00  0.00    -0.205 F 
ENDBRANCH  22  25
ENDBRANCH   3  21
TORSDOF 3
ENDMDL
MODEL 12
REMARK VINA RESULT:    -7.120      3.093      4.293
REMARK INTER + INTRA:          -8.521
REMARK INTER:                  -8.267
REMARK INTRA:                  -0.254
REMARK UNBOUND:                -0.153
REMARK SMILES CN1C(N)=N[C@](C)(c2cc(NC(=O)c3ccc(F)cn3)ccc2F)CS1(=O)=O
REMARK SMILES IDX 8 1 9 2 10 3 21 4 22 5 23 6 24 7 6 8 25 9 5 10 26 11 3 12
REMARK SMILES IDX 27 13 2 14 28 15 4 16 7 17 1 18 11 21 12 22 13 23 14 25
REMARK SMILES IDX 20 26 15 27 19 28 16 29 17 30 18 31
REMARK H PARENT 4 19 4 20 11 24
ROOT
ATOM      1  C   UNL     1      24.622  12.966  20.178  1.00  0.00     0.018 A 
ATOM      2  C   UNL     1      23.769  12.420  21.136  1.00  0.00     0.035 A 
ATOM      3  C   UNL     1      23.659  12.940  22.406  1.00  0.00     0.042 A 
ATOM      4  C   UNL     1      24.426  14.033  22.787  1.00  0.00     0.029 A 
ATOM      5  C   UNL     1      25.276  14.591  21.848  1.00  0.00     0.042 A 
ATOM      6  C   UNL     1      25.352  14.078  20.568  1.00  0.00     0.129 A 
ATOM      7  F   UNL     1      26.172  14.661  19.657  1.00  0.00    -0.207 F 
ENDROOT
BRANCH   1   8
ATOM      8  C   UNL     1      24.719  12.370  18.783  1.00  0.00     0.105 C 
ATOM      9  C   UNL     1      24.644  13.372  17.652  1.00  0.00     0.195 C 
ATOM     10  N   UNL     1      23.743  11.302  18.573  1.00  0.00    -0.240 NA
ATOM     11  S   UNL     1      23.063  14.179  17.633  1.00  0.00     0.239 S 
ATOM     12  C   UNL     1      22.510  11.557  18.262  1.00  0.00     0.205 C 
ATOM     13  O   UNL     1      22.814  14.569  16.257  1.00  0.00    -0.206 OA
ATOM     14  N   UNL     1      22.022  12.853  17.983  1.00  0.00    -0.243 N 
ATOM     15  O   UNL     1      22.901  15.048  18.756  1.00  0.00    -0.206 OA
ATOM     16  N   UNL     1      21.566  10.572  18.149  1.00  0.00    -0.369 N 
ATOM     17  C   UNL     1      26.059  11.641  18.648  1.00  0.00     0.044 C 
ATOM     18  C   UNL     1      20.593  13.143  17.753  1.00  0.00     0.167 C 
ATOM     19  H   UNL     1      21.810   9.635  18.323  1.00  0.00     0.159 HD
ATOM     20  H   UNL     1      20.643  10.801  17.893  1.00  0.00     0.159 HD
ENDBRANCH   1   8
BRANCH   3  21
ATOM     21  N   UNL     1      22.767  12.295  23.273  1.00  0.00    -0.321 N 
ATOM     22  C   UNL     1      23.040  11.683  24.484  1.00  0.00     0.274 C 
ATOM     23  O   UNL     1      24.160  11.492  24.940  1.00  0.00    -0.267 OA
ATOM     24  H   UNL     1      21.826  12.275  22.984  1.00  0.00     0.170 HD
BRANCH  22  25
ATOM     25  C   UNL     1      21.850  11.274  25.269  1.00  0.00     0.128 A 
ATOM     26  N   UNL     1      21.065  12.262  25.712  1.00  0.00    -0.248 NA
ATOM     27  C   UNL     1      21.600   9.932  25.498  1.00  0.00     0.037 A 
ATOM     28  C   UNL     1      19.983  11.916  26.429  1.00  0.00     0.151 A 
ATOM     29  C   UNL     1      20.475   9.608  26.235  1.00  0.00     0.043 A 
ATOM     30  C   UNL     1      19.654  10.611  26.714  1.00  0.00     0.141 A 
ATOM     31  F   UNL     1      18.546  10.344  27.426  1.00  0.00    -0.205 F 
ENDBRANCH  22  25
ENDBRANCH   3  21
TORSDOF 3
ENDMDL
MODEL 13
REMARK VINA RESULT:    -7.087      8.444     11.836
REMARK INTER + INTRA:          -8.482
REMARK INTER:                  -8.273
REMARK INTRA:                  -0.209
REMARK UNBOUND:                -0.153
REMARK SMILES CN1C(N)=N[C@](C)(c2cc(NC(=O)c3ccc(F)cn3)ccc2F)CS1(=O)=O
REMARK SMILES IDX 8 1 9 2 10 3 21 4 22 5 23 6 24 7 6 8 25 9 5 10 26 11 3 12
REMARK SMILES IDX 27 13 2 14 28 15 4 16 7 17 1 18 11 21 12 22 13 23 14 25
REMARK SMILES IDX 20 26 15 27 19 28 16 29 17 30 18 31
REMARK H PARENT 4 19 4 20 11 24
ROOT
ATOM      1  C   UNL     1      24.055   6.605  14.805  1.00  0.00     0.018 A 
ATOM      2  C   UNL     1      25.432   6.760  14.950  1.00  0.00     0.035 A 
ATOM      3  C   UNL     1      26.317   6.462  13.939  1.00  0.00     0.042 A 
ATOM      4  C   UNL     1      25.858   5.965  12.725  1.00  0.00     0.029 A 
ATOM      5  C   UNL     1      24.493   5.808  12.562  1.00  0.00     0.042 A 
ATOM      6  C   UNL     1      23.614   6.142  13.574  1.00  0.00     0.129 A 
ATOM      7  F   UNL     1      22.278   6.006  13.378  1.00  0.00    -0.207 F 
ENDROOT
BRANCH   1   8
ATOM      8  C   UNL     1      23.102   6.947  15.940  1.00  0.00     0.105 C 
ATOM      9  C   UNL     1      21.848   7.683  15.524  1.00  0.00     0.195 C 
ATOM     10  N   UNL     1      23.773   7.667  17.021  1.00  0.00    -0.240 NA
ATOM     11  S   UNL     1      22.251   9.274  14.848  1.00  0.00     0.239 S 
ATOM     12  C   UNL     1      23.986   8.945  16.958  1.00  0.00     0.205 C 
ATOM     13  O   UNL     1      21.105  10.131  15.094  1.00  0.00    -0.206 OA
ATOM     14  N   UNL     1      23.500   9.773  15.922  1.00  0.00    -0.243 N 
ATOM     15  O   UNL     1      22.911   9.159  13.585  1.00  0.00    -0.206 OA
ATOM     16  N   UNL     1      24.690   9.617  17.921  1.00  0.00    -0.369 N 
ATOM     17  C   UNL     1      22.656   5.648  16.618  1.00  0.00     0.044 C 
ATOM     18  C   UNL     1      23.856  11.201  15.799  1.00  0.00     0.167 C 
ATOM     19  H   UNL     1      25.069   9.126  18.686  1.00  0.00     0.159 HD
ATOM     20  H   UNL     1      24.817  10.591  17.850  1.00  0.00     0.159 HD
ENDBRANCH   1   8
BRANCH   3  21
ATOM     21  N   UNL     1      27.676   6.660  14.215  1.00  0.00    -0.321 N 
ATOM     22  C   UNL     1      28.552   5.809  14.864  1.00  0.00     0.274 C 
ATOM     23  O   UNL     1      28.236   4.769  15.428  1.00  0.00    -0.267 OA
ATOM     24  H   UNL     1      28.056   7.515  13.908  1.00  0.00     0.170 HD
BRANCH  22  25
ATOM     25  C   UNL     1      29.979   6.211  14.816  1.00  0.00     0.128 A 
ATOM     26  N   UNL     1      30.419   6.960  15.832  1.00  0.00    -0.248 NA
ATOM     27  C   UNL     1      30.777   5.801  13.762  1.00  0.00     0.037 A 
ATOM     28  C   UNL     1      31.707   7.340  15.809  1.00  0.00     0.151 A 
ATOM     29  C   UNL     1      32.101   6.203  13.769  1.00  0.00     0.043 A 
ATOM     30  C   UNL     1      32.577   6.988  14.802  1.00  0.00     0.141 A 
ATOM     31  F   UNL     1      33.856   7.395  14.856  1.00  0.00    -0.205 F 
ENDBRANCH  22  25
ENDBRANCH   3  21
TORSDOF 3
ENDMDL
MODEL 14
REMARK VINA RESULT:    -7.085      3.182      4.280
REMARK INTER + INTRA:          -8.480
REMARK INTER:                  -8.792
REMARK INTRA:                   0.312
REMARK UNBOUND:                -0.153
REMARK SMILES CN1C(N)=N[C@](C)(c2cc(NC(=O)c3ccc(F)cn3)ccc2F)CS1(=O)=O
REMARK SMILES IDX 8 1 9 2 10 3 21 4 22 5 23 6 24 7 6 8 25 9 5 10 26 11 3 12
REMARK SMILES IDX 27 13 2 14 28 15 4 16 7 17 1 18 11 21 12 22 13 23 14 25
REMARK SMILES IDX 20 26 15 27 19 28 16 29 17 30 18 31
REMARK H PARENT 4 19 4 20 11 24
ROOT
ATOM      1  C   UNL     1      23.531  12.952  19.803  1.00  0.00     0.018 A 
ATOM      2  C   UNL     1      22.982  12.470  20.990  1.00  0.00     0.035 A 
ATOM      3  C   UNL     1      23.705  12.395  22.159  1.00  0.00     0.042 A 
ATOM      4  C   UNL     1      25.038  12.786  22.188  1.00  0.00     0.029 A 
ATOM      5  C   UNL     1      25.598  13.271  21.019  1.00  0.00     0.042 A 
ATOM      6  C   UNL     1      24.852  13.370  19.862  1.00  0.00     0.129 A 
ATOM      7  F   UNL     1      25.417  13.876  18.736  1.00  0.00    -0.207 F 
ENDROOT
BRANCH   1   8
ATOM      8  C   UNL     1      22.705  13.025  18.528  1.00  0.00     0.105 C 
ATOM      9  C   UNL     1      21.554  12.046  18.454  1.00  0.00     0.195 C 
ATOM     10  N   UNL     1      23.535  12.915  17.330  1.00  0.00    -0.240 NA
ATOM     11  S   UNL     1      22.152  10.374  18.448  1.00  0.00     0.239 S 
ATOM     12  C   UNL     1      23.933  11.766  16.879  1.00  0.00     0.205 C 
ATOM     13  O   UNL     1      21.162   9.583  17.739  1.00  0.00    -0.206 OA
ATOM     14  N   UNL     1      23.520  10.526  17.414  1.00  0.00    -0.243 N 
ATOM     15  O   UNL     1      22.716  10.012  19.711  1.00  0.00    -0.206 OA
ATOM     16  N   UNL     1      24.783  11.654  15.811  1.00  0.00    -0.369 N 
ATOM     17  C   UNL     1      22.108  14.429  18.405  1.00  0.00     0.044 C 
ATOM     18  C   UNL     1      24.077   9.232  16.972  1.00  0.00     0.167 C 
ATOM     19  H   UNL     1      25.126  12.464  15.368  1.00  0.00     0.159 HD
ATOM     20  H   UNL     1      25.050  10.765  15.484  1.00  0.00     0.159 HD
ENDBRANCH   1   8
BRANCH   3  21
ATOM     21  N   UNL     1      23.035  11.889  23.280  1.00  0.00    -0.321 N 
ATOM     22  C   UNL     1      22.386  12.591  24.281  1.00  0.00     0.274 C 
ATOM     23  O   UNL     1      22.406  13.808  24.414  1.00  0.00    -0.267 OA
ATOM     24  H   UNL     1      23.024  10.908  23.367  1.00  0.00     0.170 HD
BRANCH  22  25
ATOM     25  C   UNL     1      21.590  11.765  25.220  1.00  0.00     0.128 A 
ATOM     26  N   UNL     1      20.695  12.416  25.970  1.00  0.00    -0.248 NA
ATOM     27  C   UNL     1      21.790  10.396  25.276  1.00  0.00     0.037 A 
ATOM     28  C   UNL     1      19.965  11.688  26.832  1.00  0.00     0.151 A 
ATOM     29  C   UNL     1      21.018   9.673  26.169  1.00  0.00     0.043 A 
ATOM     30  C   UNL     1      20.095  10.324  26.964  1.00  0.00     0.141 A 
ATOM     31  F   UNL     1      19.317   9.664  27.839  1.00  0.00    -0.205 F 
ENDBRANCH  22  25
ENDBRANCH   3  21
TORSDOF 3
ENDMDL
MODEL 15
REMARK VINA RESULT:    -7.044      1.882      2.411
REMARK INTER + INTRA:          -8.432
REMARK INTER:                  -8.712
REMARK INTRA:                   0.280
REMARK UNBOUND:                -0.153
REMARK SMILES CN1C(N)=N[C@](C)(c2cc(NC(=O)c3ccc(F)cn3)ccc2F)CS1(=O)=O
REMARK SMILES IDX 8 1 9 2 10 3 21 4 22 5 23 6 24 7 6 8 25 9 5 10 26 11 3 12
REMARK SMILES IDX 27 13 2 14 28 15 4 16 7 17 1 18 11 21 12 22 13 23 14 25
REMARK SMILES IDX 20 26 15 27 19 28 16 29 17 30 18 31
REMARK H PARENT 4 19 4 20 11 24
ROOT
ATOM      1  C   UNL     1      25.512  12.101  20.907  1.00  0.00     0.018 A 
ATOM      2  C   UNL     1      24.846  11.670  22.054  1.00  0.00     0.035 A 
ATOM      3  C   UNL     1      23.500  11.883  22.248  1.00  0.00     0.042 A 
ATOM      4  C   UNL     1      22.752  12.566  21.298  1.00  0.00     0.029 A 
ATOM      5  C   UNL     1      23.395  12.998  20.151  1.00  0.00     0.042 A 
ATOM      6  C   UNL     1      24.740  12.750  19.956  1.00  0.00     0.129 A 
ATOM      7  F   UNL     1      25.340  13.159  18.809  1.00  0.00    -0.207 F 
ENDROOT
BRANCH   1   8
ATOM      8  C   UNL     1      27.000  11.848  20.721  1.00  0.00     0.105 C 
ATOM      9  C   UNL     1      27.783  11.661  22.001  1.00  0.00     0.195 C 
ATOM     10  N   UNL     1      27.631  12.873  19.891  1.00  0.00    -0.240 NA
ATOM     11  S   UNL     1      27.749  13.142  22.979  1.00  0.00     0.239 S 
ATOM     12  C   UNL     1      27.996  14.017  20.381  1.00  0.00     0.205 C 
ATOM     13  O   UNL     1      28.967  13.145  23.769  1.00  0.00    -0.206 OA
ATOM     14  N   UNL     1      27.933  14.339  21.755  1.00  0.00    -0.243 N 
ATOM     15  O   UNL     1      26.446  13.394  23.510  1.00  0.00    -0.206 OA
ATOM     16  N   UNL     1      28.506  15.018  19.599  1.00  0.00    -0.369 N 
ATOM     17  C   UNL     1      27.184  10.574  19.892  1.00  0.00     0.044 C 
ATOM     18  C   UNL     1      28.234  15.686  22.281  1.00  0.00     0.167 C 
ATOM     19  H   UNL     1      28.590  14.888  18.626  1.00  0.00     0.159 HD
ATOM     20  H   UNL     1      28.790  15.868  20.008  1.00  0.00     0.159 HD
ENDBRANCH   1   8
BRANCH   3  21
ATOM     21  N   UNL     1      22.955  11.401  23.445  1.00  0.00    -0.321 N 
ATOM     22  C   UNL     1      22.876  12.041  24.669  1.00  0.00     0.274 C 
ATOM     23  O   UNL     1      23.401  13.113  24.939  1.00  0.00    -0.267 OA
ATOM     24  H   UNL     1      22.580  10.492  23.411  1.00  0.00     0.170 HD
BRANCH  22  25
ATOM     25  C   UNL     1      22.052  11.352  25.692  1.00  0.00     0.128 A 
ATOM     26  N   UNL     1      22.037  11.903  26.910  1.00  0.00    -0.248 NA
ATOM     27  C   UNL     1      21.346  10.210  25.356  1.00  0.00     0.037 A 
ATOM     28  C   UNL     1      21.300  11.294  27.854  1.00  0.00     0.151 A 
ATOM     29  C   UNL     1      20.591   9.610  26.348  1.00  0.00     0.043 A 
ATOM     30  C   UNL     1      20.569  10.152  27.618  1.00  0.00     0.141 A 
ATOM     31  F   UNL     1      19.844   9.609  28.611  1.00  0.00    -0.205 F 
ENDBRANCH  22  25
ENDBRANCH   3  21
TORSDOF 3
ENDMDL
MODEL 16
REMARK VINA RESULT:    -7.015      3.586      6.126
REMARK INTER + INTRA:          -8.398
REMARK INTER:                  -8.746
REMARK INTRA:                   0.348
REMARK UNBOUND:                -0.153
REMARK SMILES CN1C(N)=N[C@](C)(c2cc(NC(=O)c3ccc(F)cn3)ccc2F)CS1(=O)=O
REMARK SMILES IDX 8 1 9 2 10 3 21 4 22 5 23 6 24 7 6 8 25 9 5 10 26 11 3 12
REMARK SMILES IDX 27 13 2 14 28 15 4 16 7 17 1 18 11 21 12 22 13 23 14 25
REMARK SMILES IDX 20 26 15 27 19 28 16 29 17 30 18 31
REMARK H PARENT 4 19 4 20 11 24
ROOT
ATOM      1  C   UNL     1      23.895  12.318  21.034  1.00  0.00     0.018 A 
ATOM      2  C   UNL     1      23.702  11.051  20.485  1.00  0.00     0.035 A 
ATOM      3  C   UNL     1      22.985  10.070  21.132  1.00  0.00     0.042 A 
ATOM      4  C   UNL     1      22.439  10.310  22.387  1.00  0.00     0.029 A 
ATOM      5  C   UNL     1      22.617  11.563  22.945  1.00  0.00     0.042 A 
ATOM      6  C   UNL     1      23.312  12.548  22.270  1.00  0.00     0.129 A 
ATOM      7  F   UNL     1      23.447  13.779  22.827  1.00  0.00    -0.207 F 
ENDROOT
BRANCH   1   8
ATOM      8  C   UNL     1      24.689  13.382  20.293  1.00  0.00     0.105 C 
ATOM      9  C   UNL     1      25.826  12.858  19.443  1.00  0.00     0.195 C 
ATOM     10  N   UNL     1      25.175  14.429  21.190  1.00  0.00    -0.240 NA
ATOM     11  S   UNL     1      27.055  12.074  20.455  1.00  0.00     0.239 S 
ATOM     12  C   UNL     1      26.250  14.274  21.900  1.00  0.00     0.205 C 
ATOM     13  O   UNL     1      28.317  12.204  19.749  1.00  0.00    -0.206 OA
ATOM     14  N   UNL     1      27.106  13.155  21.794  1.00  0.00    -0.243 N 
ATOM     15  O   UNL     1      26.572  10.853  21.020  1.00  0.00    -0.206 OA
ATOM     16  N   UNL     1      26.667  15.208  22.809  1.00  0.00    -0.369 N 
ATOM     17  C   UNL     1      23.745  14.143  19.358  1.00  0.00     0.044 C 
ATOM     18  C   UNL     1      28.255  12.934  22.694  1.00  0.00     0.167 C 
ATOM     19  H   UNL     1      26.136  16.025  22.954  1.00  0.00     0.159 HD
ATOM     20  H   UNL     1      27.498  15.065  23.317  1.00  0.00     0.159 HD
ENDBRANCH   1   8
BRANCH   3  21
ATOM     21  N   UNL     1      22.869   8.840  20.472  1.00  0.00    -0.321 N 
ATOM     22  C   UNL     1      22.058   8.516  19.399  1.00  0.00     0.274 C 
ATOM     23  O   UNL     1      21.195   9.243  18.924  1.00  0.00    -0.267 OA
ATOM     24  H   UNL     1      23.437   8.113  20.816  1.00  0.00     0.170 HD
BRANCH  22  25
ATOM     25  C   UNL     1      22.315   7.189  18.789  1.00  0.00     0.128 A 
ATOM     26  N   UNL     1      22.767   7.193  17.531  1.00  0.00    -0.248 NA
ATOM     27  C   UNL     1      22.094   6.037  19.523  1.00  0.00     0.037 A 
ATOM     28  C   UNL     1      23.003   6.002  16.955  1.00  0.00     0.151 A 
ATOM     29  C   UNL     1      22.353   4.826  18.905  1.00  0.00     0.043 A 
ATOM     30  C   UNL     1      22.809   4.802  17.601  1.00  0.00     0.141 A 
ATOM     31  F   UNL     1      23.082   3.652  16.963  1.00  0.00    -0.205 F 
ENDBRANCH  22  25
ENDBRANCH   3  21
TORSDOF 3
ENDMDL
MODEL 17
REMARK VINA RESULT:    -6.976      5.504      7.311
REMARK INTER + INTRA:          -8.352
REMARK INTER:                  -8.855
REMARK INTRA:                   0.503
REMARK UNBOUND:                -0.153
REMARK SMILES CN1C(N)=N[C@](C)(c2cc(NC(=O)c3ccc(F)cn3)ccc2F)CS1(=O)=O
REMARK SMILES IDX 8 1 9 2 10 3 21 4 22 5 23 6 24 7 6 8 25 9 5 10 26 11 3 12
REMARK SMILES IDX 27 13 2 14 28 15 4 16 7 17 1 18 11 21 12 22 13 23 14 25
REMARK SMILES IDX 20 26 15 27 19 28 16 29 17 30 18 31
REMARK H PARENT 4 19 4 20 11 24
ROOT
ATOM      1  C   UNL     1      22.607   7.581  17.343  1.00  0.00     0.018 A 
ATOM      2  C   UNL     1      22.839   8.380  18.461  1.00  0.00     0.035 A 
ATOM      3  C   UNL     1      22.204   8.165  19.664  1.00  0.00     0.042 A 
ATOM      4  C   UNL     1      21.278   7.138  19.796  1.00  0.00     0.029 A 
ATOM      5  C   UNL     1      21.038   6.333  18.697  1.00  0.00     0.042 A 
ATOM      6  C   UNL     1      21.706   6.540  17.506  1.00  0.00     0.129 A 
ATOM      7  F   UNL     1      21.474   5.718  16.451  1.00  0.00    -0.207 F 
ENDROOT
BRANCH   1   8
ATOM      8  C   UNL     1      23.327   7.842  16.029  1.00  0.00     0.105 C 
ATOM      9  C   UNL     1      23.558   9.301  15.703  1.00  0.00     0.195 C 
ATOM     10  N   UNL     1      22.675   7.174  14.904  1.00  0.00    -0.240 NA
ATOM     11  S   UNL     1      22.012  10.147  15.488  1.00  0.00     0.239 S 
ATOM     12  C   UNL     1      21.639   7.686  14.314  1.00  0.00     0.205 C 
ATOM     13  O   UNL     1      22.268  11.252  14.581  1.00  0.00    -0.206 OA
ATOM     14  N   UNL     1      21.118   8.965  14.612  1.00  0.00    -0.243 N 
ATOM     15  O   UNL     1      21.301  10.269  16.722  1.00  0.00    -0.206 OA
ATOM     16  N   UNL     1      20.966   7.030  13.319  1.00  0.00    -0.369 N 
ATOM     17  C   UNL     1      24.702   7.171  16.076  1.00  0.00     0.044 C 
ATOM     18  C   UNL     1      19.867   9.482  14.022  1.00  0.00     0.167 C 
ATOM     19  H   UNL     1      21.254   6.131  13.040  1.00  0.00     0.159 HD
ATOM     20  H   UNL     1      20.194   7.458  12.881  1.00  0.00     0.159 HD
ENDBRANCH   1   8
BRANCH   3  21
ATOM     21  N   UNL     1      22.524   9.042  20.708  1.00  0.00    -0.321 N 
ATOM     22  C   UNL     1      22.401  10.419  20.739  1.00  0.00     0.274 C 
ATOM     23  O   UNL     1      22.101  11.121  19.782  1.00  0.00    -0.267 OA
ATOM     24  H   UNL     1      22.883   8.624  21.525  1.00  0.00     0.170 HD
BRANCH  22  25
ATOM     25  C   UNL     1      22.624  11.045  22.065  1.00  0.00     0.128 A 
ATOM     26  N   UNL     1      22.793  10.209  23.095  1.00  0.00    -0.248 NA
ATOM     27  C   UNL     1      22.658  12.424  22.181  1.00  0.00     0.037 A 
ATOM     28  C   UNL     1      22.993  10.753  24.307  1.00  0.00     0.151 A 
ATOM     29  C   UNL     1      22.872  12.954  23.441  1.00  0.00     0.043 A 
ATOM     30  C   UNL     1      23.037  12.112  24.524  1.00  0.00     0.141 A 
ATOM     31  F   UNL     1      23.256  12.581  25.764  1.00  0.00    -0.205 F 
ENDBRANCH  22  25
ENDBRANCH   3  21
TORSDOF 3
ENDMDL
MODEL 18
REMARK VINA RESULT:    -6.940      3.952      5.605
REMARK INTER + INTRA:          -8.310
REMARK INTER:                  -7.998
REMARK INTRA:                  -0.313
REMARK UNBOUND:                -0.153
REMARK SMILES CN1C(N)=N[C@](C)(c2cc(NC(=O)c3ccc(F)cn3)ccc2F)CS1(=O)=O
REMARK SMILES IDX 8 1 9 2 10 3 21 4 22 5 23 6 24 7 6 8 25 9 5 10 26 11 3 12
REMARK SMILES IDX 27 13 2 14 28 15 4 16 7 17 1 18 11 21 12 22 13 23 14 25
REMARK SMILES IDX 20 26 15 27 19 28 16 29 17 30 18 31
REMARK H PARENT 4 19 4 20 11 24
ROOT
ATOM      1  C   UNL     1      23.402  10.553  18.447  1.00  0.00     0.018 A 
ATOM      2  C   UNL     1      23.023  10.315  19.767  1.00  0.00     0.035 A 
ATOM      3  C   UNL     1      22.647  11.328  20.619  1.00  0.00     0.042 A 
ATOM      4  C   UNL     1      22.656  12.649  20.188  1.00  0.00     0.029 A 
ATOM      5  C   UNL     1      23.027  12.904  18.880  1.00  0.00     0.042 A 
ATOM      6  C   UNL     1      23.370  11.873  18.027  1.00  0.00     0.129 A 
ATOM      7  F   UNL     1      23.702  12.147  16.739  1.00  0.00    -0.207 F 
ENDROOT
BRANCH   1   8
ATOM      8  C   UNL     1      23.809   9.411  17.529  1.00  0.00     0.105 C 
ATOM      9  C   UNL     1      23.149   9.416  16.168  1.00  0.00     0.195 C 
ATOM     10  N   UNL     1      23.636   8.106  18.166  1.00  0.00    -0.240 NA
ATOM     11  S   UNL     1      21.394   9.199  16.322  1.00  0.00     0.239 S 
ATOM     12  C   UNL     1      22.480   7.517  18.210  1.00  0.00     0.205 C 
ATOM     13  O   UNL     1      20.945   8.570  15.093  1.00  0.00    -0.206 OA
ATOM     14  N   UNL     1      21.325   8.005  17.560  1.00  0.00    -0.243 N 
ATOM     15  O   UNL     1      20.771  10.342  16.914  1.00  0.00    -0.206 OA
ATOM     16  N   UNL     1      22.286   6.339  18.879  1.00  0.00    -0.369 N 
ATOM     17  C   UNL     1      25.321   9.479  17.294  1.00  0.00     0.044 C 
ATOM     18  C   UNL     1      19.991   7.392  17.722  1.00  0.00     0.167 C 
ATOM     19  H   UNL     1      23.033   5.919  19.363  1.00  0.00     0.159 HD
ATOM     20  H   UNL     1      21.399   5.911  18.875  1.00  0.00     0.159 HD
ENDBRANCH   1   8
BRANCH   3  21
ATOM     21  N   UNL     1      22.292  10.954  21.921  1.00  0.00    -0.321 N 
ATOM     22  C   UNL     1      22.948  11.241  23.105  1.00  0.00     0.274 C 
ATOM     23  O   UNL     1      24.045  11.776  23.190  1.00  0.00    -0.267 OA
ATOM     24  H   UNL     1      21.469  10.419  22.005  1.00  0.00     0.170 HD
BRANCH  22  25
ATOM     25  C   UNL     1      22.209  10.885  24.341  1.00  0.00     0.128 A 
ATOM     26  N   UNL     1      21.877   9.598  24.483  1.00  0.00    -0.248 NA
ATOM     27  C   UNL     1      21.911  11.863  25.274  1.00  0.00     0.037 A 
ATOM     28  C   UNL     1      21.203   9.252  25.593  1.00  0.00     0.151 A 
ATOM     29  C   UNL     1      21.221  11.475  26.409  1.00  0.00     0.043 A 
ATOM     30  C   UNL     1      20.856  10.153  26.574  1.00  0.00     0.141 A 
ATOM     31  F   UNL     1      20.194   9.728  27.664  1.00  0.00    -0.205 F 
ENDBRANCH  22  25
ENDBRANCH   3  21
TORSDOF 3
ENDMDL
MODEL 19
REMARK VINA RESULT:    -6.929      3.655      5.964
REMARK INTER + INTRA:          -8.297
REMARK INTER:                  -7.838
REMARK INTRA:                  -0.459
REMARK UNBOUND:                -0.153
REMARK SMILES CN1C(N)=N[C@](C)(c2cc(NC(=O)c3ccc(F)cn3)ccc2F)CS1(=O)=O
REMARK SMILES IDX 8 1 9 2 10 3 21 4 22 5 23 6 24 7 6 8 25 9 5 10 26 11 3 12
REMARK SMILES IDX 27 13 2 14 28 15 4 16 7 17 1 18 11 21 12 22 13 23 14 25
REMARK SMILES IDX 20 26 15 27 19 28 16 29 17 30 18 31
REMARK H PARENT 4 19 4 20 11 24
ROOT
ATOM      1  C   UNL     1      25.335  12.945  22.746  1.00  0.00     0.018 A 
ATOM      2  C   UNL     1      24.637  11.985  22.015  1.00  0.00     0.035 A 
ATOM      3  C   UNL     1      23.293  11.752  22.200  1.00  0.00     0.042 A 
ATOM      4  C   UNL     1      22.581  12.466  23.156  1.00  0.00     0.029 A 
ATOM      5  C   UNL     1      23.257  13.426  23.889  1.00  0.00     0.042 A 
ATOM      6  C   UNL     1      24.599  13.671  23.669  1.00  0.00     0.129 A 
ATOM      7  F   UNL     1      25.232  14.638  24.381  1.00  0.00    -0.207 F 
ENDROOT
BRANCH   1   8
ATOM      8  C   UNL     1      26.820  13.181  22.515  1.00  0.00     0.105 C 
ATOM      9  C   UNL     1      27.194  14.598  22.141  1.00  0.00     0.195 C 
ATOM     10  N   UNL     1      27.381  12.241  21.546  1.00  0.00    -0.240 NA
ATOM     11  S   UNL     1      26.471  15.046  20.583  1.00  0.00     0.239 S 
ATOM     12  C   UNL     1      27.262  12.429  20.267  1.00  0.00     0.205 C 
ATOM     13  O   UNL     1      27.342  16.049  19.996  1.00  0.00    -0.206 OA
ATOM     14  N   UNL     1      26.698  13.590  19.693  1.00  0.00    -0.243 N 
ATOM     15  O   UNL     1      25.050  15.171  20.677  1.00  0.00    -0.206 OA
ATOM     16  N   UNL     1      27.704  11.514  19.350  1.00  0.00    -0.369 N 
ATOM     17  C   UNL     1      27.580  12.841  23.801  1.00  0.00     0.044 C 
ATOM     18  C   UNL     1      26.457  13.735  18.244  1.00  0.00     0.167 C 
ATOM     19  H   UNL     1      28.113  10.671  19.654  1.00  0.00     0.159 HD
ATOM     20  H   UNL     1      27.614  11.698  18.387  1.00  0.00     0.159 HD
ENDBRANCH   1   8
BRANCH   3  21
ATOM     21  N   UNL     1      22.712  10.758  21.403  1.00  0.00    -0.321 N 
ATOM     22  C   UNL     1      22.270  10.857  20.096  1.00  0.00     0.274 C 
ATOM     23  O   UNL     1      22.198  11.896  19.454  1.00  0.00    -0.267 OA
ATOM     24  H   UNL     1      22.606   9.875  21.827  1.00  0.00     0.170 HD
BRANCH  22  25
ATOM     25  C   UNL     1      21.897   9.573  19.455  1.00  0.00     0.128 A 
ATOM     26  N   UNL     1      21.221   9.659  18.304  1.00  0.00    -0.248 NA
ATOM     27  C   UNL     1      22.258   8.374  20.046  1.00  0.00     0.037 A 
ATOM     28  C   UNL     1      20.869   8.509  17.706  1.00  0.00     0.151 A 
ATOM     29  C   UNL     1      21.886   7.207  19.403  1.00  0.00     0.043 A 
ATOM     30  C   UNL     1      21.177   7.269  18.219  1.00  0.00     0.141 A 
ATOM     31  F   UNL     1      20.803   6.162  17.555  1.00  0.00    -0.205 F 
ENDBRANCH  22  25
ENDBRANCH   3  21
TORSDOF 3
ENDMDL
MODEL 20
REMARK VINA RESULT:    -6.854      4.402      6.844
REMARK INTER + INTRA:          -8.209
REMARK INTER:                  -8.055
REMARK INTRA:                  -0.153
REMARK UNBOUND:                -0.153
REMARK SMILES CN1C(N)=N[C@](C)(c2cc(NC(=O)c3ccc(F)cn3)ccc2F)CS1(=O)=O
REMARK SMILES IDX 8 1 9 2 10 3 21 4 22 5 23 6 24 7 6 8 25 9 5 10 26 11 3 12
REMARK SMILES IDX 27 13 2 14 28 15 4 16 7 17 1 18 11 21 12 22 13 23 14 25
REMARK SMILES IDX 20 26 15 27 19 28 16 29 17 30 18 31
REMARK H PARENT 4 19 4 20 11 24
ROOT
ATOM      1  C   UNL     1      22.814  11.917  19.805  1.00  0.00     0.018 A 
ATOM      2  C   UNL     1      22.693  10.552  19.547  1.00  0.00     0.035 A 
ATOM      3  C   UNL     1      21.892  10.061  18.541  1.00  0.00     0.042 A 
ATOM      4  C   UNL     1      21.147  10.926  17.750  1.00  0.00     0.029 A 
ATOM      5  C   UNL     1      21.257  12.285  17.989  1.00  0.00     0.042 A 
ATOM      6  C   UNL     1      22.090  12.764  18.981  1.00  0.00     0.129 A 
ATOM      7  F   UNL     1      22.203  14.103  19.177  1.00  0.00    -0.207 F 
ENDROOT
BRANCH   1   8
ATOM      8  C   UNL     1      23.710  12.428  20.922  1.00  0.00     0.105 C 
ATOM      9  C   UNL     1      24.466  13.700  20.606  1.00  0.00     0.195 C 
ATOM     10  N   UNL     1      24.634  11.400  21.399  1.00  0.00    -0.240 NA
ATOM     11  S   UNL     1      25.604  13.437  19.270  1.00  0.00     0.239 S 
ATOM     12  C   UNL     1      25.741  11.138  20.776  1.00  0.00     0.205 C 
ATOM     13  O   UNL     1      26.688  14.385  19.456  1.00  0.00    -0.206 OA
ATOM     14  N   UNL     1      26.216  11.878  19.671  1.00  0.00    -0.243 N 
ATOM     15  O   UNL     1      24.923  13.228  18.030  1.00  0.00    -0.206 OA
ATOM     16  N   UNL     1      26.572  10.119  21.161  1.00  0.00    -0.369 N 
ATOM     17  C   UNL     1      22.848  12.713  22.156  1.00  0.00     0.044 C 
ATOM     18  C   UNL     1      27.412  11.491  18.897  1.00  0.00     0.167 C 
ATOM     19  H   UNL     1      26.327   9.546  21.923  1.00  0.00     0.159 HD
ATOM     20  H   UNL     1      27.414   9.960  20.675  1.00  0.00     0.159 HD
ENDBRANCH   1   8
BRANCH   3  21
ATOM     21  N   UNL     1      21.858   8.669  18.389  1.00  0.00    -0.321 N 
ATOM     22  C   UNL     1      22.813   7.845  17.820  1.00  0.00     0.274 C 
ATOM     23  O   UNL     1      23.812   8.230  17.228  1.00  0.00    -0.267 OA
ATOM     24  H   UNL     1      21.051   8.220  18.731  1.00  0.00     0.170 HD
BRANCH  22  25
ATOM     25  C   UNL     1      22.581   6.391  17.998  1.00  0.00     0.128 A 
ATOM     26  N   UNL     1      22.947   5.604  16.981  1.00  0.00    -0.248 NA
ATOM     27  C   UNL     1      22.024   5.918  19.174  1.00  0.00     0.037 A 
ATOM     28  C   UNL     1      22.743   4.283  17.118  1.00  0.00     0.151 A 
ATOM     29  C   UNL     1      21.832   4.553  19.287  1.00  0.00     0.043 A 
ATOM     30  C   UNL     1      22.191   3.719  18.245  1.00  0.00     0.141 A 
ATOM     31  F   UNL     1      22.032   2.386  18.313  1.00  0.00    -0.205 F 
ENDBRANCH  22  25
ENDBRANCH   3  21
TORSDOF 3
ENDMDL
