MODEL 1
REMARK VINA RESULT:    16.529      0.000      0.000
REMARK INTER + INTRA:          22.846
REMARK INTER:                  23.293
REMARK INTRA:                  -0.447
REMARK UNBOUND:                -0.447
REMARK SMILES Cc1ccc(NC(=O)c2ccc(CN3CCN(C)CC3)cc2)cc1Nc1nc(-c2cccnc2)cs1
REMARK SMILES IDX 6 1 7 2 8 3 5 5 2 6 3 7 24 8 4 9 23 10 1 11 25 12 26 14
REMARK SMILES IDX 27 15 36 16 28 17 35 18 29 19 30 20 34 21 31 22 33 23 32 24
REMARK SMILES IDX 9 25 10 26 22 27 11 28 21 29 12 30 13 31 14 32 15 33 20 34
REMARK SMILES IDX 16 35 19 36 17 37 18 38
REMARK H PARENT 6 4 25 13
ROOT
ATOM      1  N   UNL     1      30.535  27.655  45.889  1.00  0.00    -0.322 N 
ATOM      2  C   UNL     1      30.527  28.899  46.494  1.00  0.00     0.255 C 
ATOM      3  O   UNL     1      30.030  29.189  47.575  1.00  0.00    -0.269 OA
ATOM      4  H   UNL     1      31.116  27.553  45.069  1.00  0.00     0.170 HD
ENDROOT
BRANCH   1   5
ATOM      5  C   UNL     1      29.924  26.473  46.358  1.00  0.00     0.043 A 
ATOM      6  C   UNL     1      28.807  24.115  47.441  1.00  0.00    -0.027 A 
ATOM      7  C   UNL     1      29.963  24.679  47.996  1.00  0.00     0.008 A 
ATOM      8  C   UNL     1      28.225  24.721  46.312  1.00  0.00     0.045 A 
ATOM      9  C   UNL     1      30.513  25.846  47.461  1.00  0.00     0.026 A 
ATOM     10  C   UNL     1      28.789  25.898  45.785  1.00  0.00     0.052 A 
ATOM     11  C   UNL     1      28.241  22.859  48.043  1.00  0.00     0.046 C 
BRANCH   8  12
ATOM     12  N   UNL     1      27.083  24.156  45.695  1.00  0.00    -0.331 N 
ATOM     13  H   UNL     1      26.515  23.659  46.375  1.00  0.00     0.169 HD
BRANCH  12  14
ATOM     14  C   UNL     1      26.293  24.837  44.820  1.00  0.00     0.187 A 
ATOM     15  N   UNL     1      26.283  24.540  43.538  1.00  0.00    -0.220 NA
ATOM     16  S   UNL     1      25.253  26.150  45.243  1.00  0.00    -0.105 S 
ATOM     17  C   UNL     1      25.428  25.372  42.828  1.00  0.00     0.085 A 
ATOM     18  C   UNL     1      24.774  26.305  43.606  1.00  0.00     0.097 A 
BRANCH  17  19
ATOM     19  C   UNL     1      25.276  25.225  41.384  1.00  0.00     0.019 A 
ATOM     20  C   UNL     1      24.847  24.045  40.769  1.00  0.00     0.013 A 
ATOM     21  C   UNL     1      25.554  26.302  40.543  1.00  0.00     0.121 A 
ATOM     22  C   UNL     1      24.716  23.988  39.379  1.00  0.00     0.021 A 
ATOM     23  N   UNL     1      25.437  26.277  39.189  1.00  0.00    -0.264 NA
ATOM     24  C   UNL     1      25.020  25.118  38.641  1.00  0.00     0.111 A 
ENDBRANCH  17  19
ENDBRANCH  12  14
ENDBRANCH   8  12
ENDBRANCH   1   5
BRANCH   2  25
ATOM     25  C   UNL     1      31.258  29.957  45.742  1.00  0.00     0.040 A 
ATOM     26  C   UNL     1      31.936  29.598  44.573  1.00  0.00     0.014 A 
ATOM     27  C   UNL     1      31.290  31.285  46.186  1.00  0.00     0.014 A 
ATOM     28  C   UNL     1      32.614  30.569  43.833  1.00  0.00     0.006 A 
ATOM     29  C   UNL     1      31.973  32.253  45.445  1.00  0.00     0.006 A 
ATOM     30  C   UNL     1      32.631  31.907  44.255  1.00  0.00    -0.034 A 
BRANCH  30  31
ATOM     31  C   UNL     1      33.384  32.956  43.457  1.00  0.00     0.120 C 
BRANCH  31  32
ATOM     32  N   UNL     1      34.793  33.084  43.874  1.00  0.00    -0.297 NA
ATOM     33  C   UNL     1      35.642  33.437  42.721  1.00  0.00     0.100 C 
ATOM     34  C   UNL     1      35.297  31.831  44.487  1.00  0.00     0.100 C 
ATOM     35  C   UNL     1      35.812  32.327  41.647  1.00  0.00     0.099 C 
ATOM     36  C   UNL     1      36.085  30.872  43.553  1.00  0.00     0.099 C 
ATOM     37  N   UNL     1      35.632  30.955  42.159  1.00  0.00    -0.304 NA
ATOM     38  C   UNL     1      36.306  29.979  41.309  1.00  0.00     0.105 C 
ENDBRANCH  31  32
ENDBRANCH  30  31
ENDBRANCH   2  25
TORSDOF 7
ENDMDL
MODEL 2
REMARK VINA RESULT:    16.941      2.046      9.611
REMARK INTER + INTRA:          23.426
REMARK INTER:                  23.447
REMARK INTRA:                  -0.021
REMARK UNBOUND:                -0.447
REMARK SMILES Cc1ccc(NC(=O)c2ccc(CN3CCN(C)CC3)cc2)cc1Nc1nc(-c2cccnc2)cs1
REMARK SMILES IDX 6 1 7 2 8 3 5 5 2 6 3 7 24 8 4 9 23 10 1 11 25 12 26 14
REMARK SMILES IDX 27 15 36 16 28 17 35 18 29 19 30 20 34 21 31 22 33 23 32 24
REMARK SMILES IDX 9 25 10 26 22 27 11 28 21 29 12 30 13 31 14 32 15 33 20 34
REMARK SMILES IDX 16 35 19 36 17 37 18 38
REMARK H PARENT 6 4 25 13
ROOT
ATOM      1  N   UNL     1      27.168  25.413  44.534  1.00  0.00    -0.322 N 
ATOM      2  C   UNL     1      25.847  25.814  44.613  1.00  0.00     0.255 C 
ATOM      3  O   UNL     1      25.262  26.232  45.605  1.00  0.00    -0.269 OA
ATOM      4  H   UNL     1      27.533  25.235  43.609  1.00  0.00     0.170 HD
ENDROOT
BRANCH   1   5
ATOM      5  C   UNL     1      28.106  25.345  45.587  1.00  0.00     0.043 A 
ATOM      6  C   UNL     1      29.979  25.029  47.677  1.00  0.00    -0.027 A 
ATOM      7  C   UNL     1      29.293  23.923  47.159  1.00  0.00     0.008 A 
ATOM      8  C   UNL     1      29.700  26.309  47.163  1.00  0.00     0.045 A 
ATOM      9  C   UNL     1      28.368  24.081  46.124  1.00  0.00     0.026 A 
ATOM     10  C   UNL     1      28.767  26.452  46.119  1.00  0.00     0.052 A 
ATOM     11  C   UNL     1      30.970  24.823  48.790  1.00  0.00     0.046 C 
BRANCH   8  12
ATOM     12  N   UNL     1      30.338  27.457  47.691  1.00  0.00    -0.331 N 
ATOM     13  H   UNL     1      31.179  27.198  48.202  1.00  0.00     0.169 HD
BRANCH  12  14
ATOM     14  C   UNL     1      30.549  28.592  46.971  1.00  0.00     0.187 A 
ATOM     15  N   UNL     1      31.608  28.723  46.199  1.00  0.00    -0.220 NA
ATOM     16  S   UNL     1      29.517  29.977  46.983  1.00  0.00    -0.105 S 
ATOM     17  C   UNL     1      31.637  29.964  45.579  1.00  0.00     0.085 A 
ATOM     18  C   UNL     1      30.564  30.774  45.887  1.00  0.00     0.097 A 
BRANCH  17  19
ATOM     19  C   UNL     1      32.736  30.325  44.689  1.00  0.00     0.019 A 
ATOM     20  C   UNL     1      33.380  31.566  44.722  1.00  0.00     0.013 A 
ATOM     21  C   UNL     1      33.201  29.406  43.749  1.00  0.00     0.121 A 
ATOM     22  C   UNL     1      34.432  31.832  43.842  1.00  0.00     0.021 A 
ATOM     23  N   UNL     1      34.220  29.636  42.880  1.00  0.00    -0.264 NA
ATOM     24  C   UNL     1      34.811  30.845  42.949  1.00  0.00     0.111 A 
ENDBRANCH  17  19
ENDBRANCH  12  14
ENDBRANCH   8  12
ENDBRANCH   1   5
BRANCH   2  25
ATOM     25  C   UNL     1      25.107  25.764  43.321  1.00  0.00     0.040 A 
ATOM     26  C   UNL     1      25.666  25.047  42.258  1.00  0.00     0.014 A 
ATOM     27  C   UNL     1      23.885  26.426  43.148  1.00  0.00     0.014 A 
ATOM     28  C   UNL     1      24.990  24.964  41.040  1.00  0.00     0.006 A 
ATOM     29  C   UNL     1      23.212  26.344  41.925  1.00  0.00     0.006 A 
ATOM     30  C   UNL     1      23.752  25.602  40.864  1.00  0.00    -0.034 A 
BRANCH  30  31
ATOM     31  C   UNL     1      23.028  25.525  39.531  1.00  0.00     0.120 C 
BRANCH  31  32
ATOM     32  N   UNL     1      23.809  26.109  38.426  1.00  0.00    -0.297 NA
ATOM     33  C   UNL     1      23.290  25.645  37.126  1.00  0.00     0.100 C 
ATOM     34  C   UNL     1      25.248  25.763  38.530  1.00  0.00     0.100 C 
ATOM     35  C   UNL     1      23.520  24.142  36.809  1.00  0.00     0.099 C 
ATOM     36  C   UNL     1      25.730  24.550  37.688  1.00  0.00     0.099 C 
ATOM     37  N   UNL     1      24.677  23.545  37.505  1.00  0.00    -0.304 NA
ATOM     38  C   UNL     1      25.168  22.364  36.802  1.00  0.00     0.105 C 
ENDBRANCH  31  32
ENDBRANCH  30  31
ENDBRANCH   2  25
TORSDOF 7
ENDMDL
MODEL 3
REMARK VINA RESULT:    17.021      2.222      9.879
REMARK INTER + INTRA:          23.539
REMARK INTER:                  24.615
REMARK INTRA:                  -1.076
REMARK UNBOUND:                -0.447
REMARK SMILES Cc1ccc(NC(=O)c2ccc(CN3CCN(C)CC3)cc2)cc1Nc1nc(-c2cccnc2)cs1
REMARK SMILES IDX 6 1 7 2 8 3 5 5 2 6 3 7 24 8 4 9 23 10 1 11 25 12 26 14
REMARK SMILES IDX 27 15 36 16 28 17 35 18 29 19 30 20 34 21 31 22 33 23 32 24
REMARK SMILES IDX 9 25 10 26 22 27 11 28 21 29 12 30 13 31 14 32 15 33 20 34
REMARK SMILES IDX 16 35 19 36 17 37 18 38
REMARK H PARENT 6 4 25 13
ROOT
ATOM      1  N   UNL     1      27.461  25.239  44.575  1.00  0.00    -0.322 N 
ATOM      2  C   UNL     1      26.152  25.686  44.606  1.00  0.00     0.255 C 
ATOM      3  O   UNL     1      25.571  26.199  45.554  1.00  0.00    -0.269 OA
ATOM      4  H   UNL     1      27.830  24.977  43.671  1.00  0.00     0.170 HD
ENDROOT
BRANCH   1   5
ATOM      5  C   UNL     1      28.385  25.225  45.642  1.00  0.00     0.043 A 
ATOM      6  C   UNL     1      30.238  25.017  47.763  1.00  0.00    -0.027 A 
ATOM      7  C   UNL     1      29.604  23.877  47.254  1.00  0.00     0.008 A 
ATOM      8  C   UNL     1      29.916  26.277  47.224  1.00  0.00     0.045 A 
ATOM      9  C   UNL     1      28.689  23.981  46.204  1.00  0.00     0.026 A 
ATOM     10  C   UNL     1      28.994  26.366  46.165  1.00  0.00     0.052 A 
ATOM     11  C   UNL     1      31.220  24.869  48.893  1.00  0.00     0.046 C 
BRANCH   8  12
ATOM     12  N   UNL     1      30.502  27.457  47.741  1.00  0.00    -0.331 N 
ATOM     13  H   UNL     1      31.361  27.243  48.242  1.00  0.00     0.169 HD
BRANCH  12  14
ATOM     14  C   UNL     1      30.645  28.600  47.016  1.00  0.00     0.187 A 
ATOM     15  N   UNL     1      31.715  28.809  46.278  1.00  0.00    -0.220 NA
ATOM     16  S   UNL     1      29.505  29.898  46.980  1.00  0.00    -0.105 S 
ATOM     17  C   UNL     1      31.666  30.043  45.646  1.00  0.00     0.085 A 
ATOM     18  C   UNL     1      30.521  30.767  45.910  1.00  0.00     0.097 A 
BRANCH  17  19
ATOM     19  C   UNL     1      32.761  30.484  44.788  1.00  0.00     0.019 A 
ATOM     20  C   UNL     1      33.303  31.773  44.830  1.00  0.00     0.013 A 
ATOM     21  C   UNL     1      33.328  29.598  43.872  1.00  0.00     0.121 A 
ATOM     22  C   UNL     1      34.360  32.115  43.982  1.00  0.00     0.021 A 
ATOM     23  N   UNL     1      34.354  29.902  43.035  1.00  0.00    -0.264 NA
ATOM     24  C   UNL     1      34.845  31.155  43.111  1.00  0.00     0.111 A 
ENDBRANCH  17  19
ENDBRANCH  12  14
ENDBRANCH   8  12
ENDBRANCH   1   5
BRANCH   2  25
ATOM     25  C   UNL     1      25.425  25.557  43.312  1.00  0.00     0.040 A 
ATOM     26  C   UNL     1      26.064  24.914  42.247  1.00  0.00     0.014 A 
ATOM     27  C   UNL     1      24.135  26.075  43.140  1.00  0.00     0.014 A 
ATOM     28  C   UNL     1      25.403  24.759  41.027  1.00  0.00     0.006 A 
ATOM     29  C   UNL     1      23.478  25.922  41.915  1.00  0.00     0.006 A 
ATOM     30  C   UNL     1      24.100  25.252  40.851  1.00  0.00    -0.034 A 
BRANCH  30  31
ATOM     31  C   UNL     1      23.392  25.097  39.518  1.00  0.00     0.120 C 
BRANCH  31  32
ATOM     32  N   UNL     1      24.315  25.184  38.371  1.00  0.00    -0.297 NA
ATOM     33  C   UNL     1      24.372  26.565  37.858  1.00  0.00     0.100 C 
ATOM     34  C   UNL     1      23.910  24.271  37.274  1.00  0.00     0.100 C 
ATOM     35  C   UNL     1      23.082  27.078  37.163  1.00  0.00     0.099 C 
ATOM     36  C   UNL     1      23.073  24.899  36.125  1.00  0.00     0.099 C 
ATOM     37  N   UNL     1      22.237  26.012  36.590  1.00  0.00    -0.304 NA
ATOM     38  C   UNL     1      21.379  26.528  35.528  1.00  0.00     0.105 C 
ENDBRANCH  31  32
ENDBRANCH  30  31
ENDBRANCH   2  25
TORSDOF 7
ENDMDL
MODEL 4
REMARK VINA RESULT:    17.251      5.627      7.504
REMARK INTER + INTRA:          23.864
REMARK INTER:                  24.422
REMARK INTRA:                  -0.558
REMARK UNBOUND:                -0.447
REMARK SMILES Cc1ccc(NC(=O)c2ccc(CN3CCN(C)CC3)cc2)cc1Nc1nc(-c2cccnc2)cs1
REMARK SMILES IDX 6 1 7 2 8 3 5 5 2 6 3 7 24 8 4 9 23 10 1 11 25 12 26 14
REMARK SMILES IDX 27 15 36 16 28 17 35 18 29 19 30 20 34 21 31 22 33 23 32 24
REMARK SMILES IDX 9 25 10 26 22 27 11 28 21 29 12 30 13 31 14 32 15 33 20 34
REMARK SMILES IDX 16 35 19 36 17 37 18 38
REMARK H PARENT 6 4 25 13
ROOT
ATOM      1  N   UNL     1      26.722  25.550  45.480  1.00  0.00    -0.322 N 
ATOM      2  C   UNL     1      27.554  24.472  45.239  1.00  0.00     0.255 C 
ATOM      3  O   UNL     1      27.523  23.718  44.275  1.00  0.00    -0.269 OA
ATOM      4  H   UNL     1      26.976  26.157  46.247  1.00  0.00     0.170 HD
ENDROOT
BRANCH   1   5
ATOM      5  C   UNL     1      25.626  25.976  44.699  1.00  0.00     0.043 A 
ATOM      6  C   UNL     1      23.334  26.830  43.286  1.00  0.00    -0.027 A 
ATOM      7  C   UNL     1      23.236  26.406  44.618  1.00  0.00     0.008 A 
ATOM      8  C   UNL     1      24.588  26.795  42.648  1.00  0.00     0.045 A 
ATOM      9  C   UNL     1      24.371  25.985  45.315  1.00  0.00     0.026 A 
ATOM     10  C   UNL     1      25.723  26.371  43.364  1.00  0.00     0.052 A 
ATOM     11  C   UNL     1      22.093  27.278  42.566  1.00  0.00     0.046 C 
BRANCH   8  12
ATOM     12  N   UNL     1      24.720  27.173  41.290  1.00  0.00    -0.331 N 
ATOM     13  H   UNL     1      25.447  27.875  41.181  1.00  0.00     0.169 HD
BRANCH  12  14
ATOM     14  C   UNL     1      24.766  26.277  40.267  1.00  0.00     0.187 A 
ATOM     15  N   UNL     1      23.902  26.331  39.274  1.00  0.00    -0.220 NA
ATOM     16  S   UNL     1      25.898  24.978  40.139  1.00  0.00    -0.105 S 
ATOM     17  C   UNL     1      24.115  25.312  38.357  1.00  0.00     0.085 A 
ATOM     18  C   UNL     1      25.173  24.483  38.668  1.00  0.00     0.097 A 
BRANCH  17  19
ATOM     19  C   UNL     1      23.258  25.177  37.183  1.00  0.00     0.019 A 
ATOM     20  C   UNL     1      23.162  24.003  36.429  1.00  0.00     0.013 A 
ATOM     21  C   UNL     1      22.471  26.251  36.768  1.00  0.00     0.121 A 
ATOM     22  C   UNL     1      22.309  23.950  35.323  1.00  0.00     0.021 A 
ATOM     23  N   UNL     1      21.635  26.230  35.698  1.00  0.00    -0.264 NA
ATOM     24  C   UNL     1      21.574  25.077  35.002  1.00  0.00     0.111 A 
ENDBRANCH  17  19
ENDBRANCH  12  14
ENDBRANCH   8  12
ENDBRANCH   1   5
BRANCH   2  25
ATOM     25  C   UNL     1      28.620  24.274  46.261  1.00  0.00     0.040 A 
ATOM     26  C   UNL     1      29.246  23.026  46.342  1.00  0.00     0.014 A 
ATOM     27  C   UNL     1      28.991  25.298  47.142  1.00  0.00     0.014 A 
ATOM     28  C   UNL     1      30.262  22.813  47.275  1.00  0.00     0.006 A 
ATOM     29  C   UNL     1      30.007  25.080  48.079  1.00  0.00     0.006 A 
ATOM     30  C   UNL     1      30.660  23.840  48.145  1.00  0.00    -0.034 A 
BRANCH  30  31
ATOM     31  C   UNL     1      31.753  23.599  49.171  1.00  0.00     0.120 C 
BRANCH  31  32
ATOM     32  N   UNL     1      33.030  24.237  48.801  1.00  0.00    -0.297 NA
ATOM     33  C   UNL     1      34.147  23.623  49.543  1.00  0.00     0.100 C 
ATOM     34  C   UNL     1      33.009  25.696  49.067  1.00  0.00     0.100 C 
ATOM     35  C   UNL     1      34.175  23.905  51.070  1.00  0.00     0.099 C 
ATOM     36  C   UNL     1      33.634  26.163  50.411  1.00  0.00     0.099 C 
ATOM     37  N   UNL     1      33.498  25.154  51.469  1.00  0.00    -0.304 NA
ATOM     38  C   UNL     1      33.995  25.641  52.751  1.00  0.00     0.105 C 
ENDBRANCH  31  32
ENDBRANCH  30  31
ENDBRANCH   2  25
TORSDOF 7
ENDMDL
MODEL 5
REMARK VINA RESULT:    18.426      6.107      9.296
REMARK INTER + INTRA:          25.518
REMARK INTER:                  24.185
REMARK INTRA:                   1.333
REMARK UNBOUND:                -0.447
REMARK SMILES Cc1ccc(NC(=O)c2ccc(CN3CCN(C)CC3)cc2)cc1Nc1nc(-c2cccnc2)cs1
REMARK SMILES IDX 6 1 7 2 8 3 5 5 2 6 3 7 24 8 4 9 23 10 1 11 25 12 26 14
REMARK SMILES IDX 27 15 36 16 28 17 35 18 29 19 30 20 34 21 31 22 33 23 32 24
REMARK SMILES IDX 9 25 10 26 22 27 11 28 21 29 12 30 13 31 14 32 15 33 20 34
REMARK SMILES IDX 16 35 19 36 17 37 18 38
REMARK H PARENT 6 4 25 13
ROOT
ATOM      1  N   UNL     1      25.904  24.723  41.499  1.00  0.00    -0.322 N 
ATOM      2  C   UNL     1      25.376  25.276  42.652  1.00  0.00     0.255 C 
ATOM      3  O   UNL     1      24.282  25.814  42.777  1.00  0.00    -0.269 OA
ATOM      4  H   UNL     1      26.755  24.189  41.602  1.00  0.00     0.170 HD
ENDROOT
BRANCH   1   5
ATOM      5  C   UNL     1      25.324  24.712  40.213  1.00  0.00     0.043 A 
ATOM      6  C   UNL     1      24.089  24.529  37.679  1.00  0.00    -0.027 A 
ATOM      7  C   UNL     1      24.120  23.425  38.540  1.00  0.00     0.008 A 
ATOM      8  C   UNL     1      24.711  25.726  38.079  1.00  0.00     0.045 A 
ATOM      9  C   UNL     1      24.729  23.518  39.794  1.00  0.00     0.026 A 
ATOM     10  C   UNL     1      25.319  25.806  39.346  1.00  0.00     0.052 A 
ATOM     11  C   UNL     1      23.423  24.395  36.337  1.00  0.00     0.046 C 
BRANCH   8  12
ATOM     12  N   UNL     1      24.741  26.850  37.219  1.00  0.00    -0.331 N 
ATOM     13  H   UNL     1      25.380  26.693  36.444  1.00  0.00     0.169 HD
BRANCH  12  14
ATOM     14  C   UNL     1      23.620  27.493  36.791  1.00  0.00     0.187 A 
ATOM     15  N   UNL     1      23.593  28.803  36.664  1.00  0.00    -0.220 NA
ATOM     16  S   UNL     1      22.127  26.720  36.392  1.00  0.00    -0.105 S 
ATOM     17  C   UNL     1      22.349  29.249  36.239  1.00  0.00     0.085 A 
ATOM     18  C   UNL     1      21.429  28.241  36.031  1.00  0.00     0.097 A 
BRANCH  17  19
ATOM     19  C   UNL     1      22.094  30.673  36.047  1.00  0.00     0.019 A 
ATOM     20  C   UNL     1      20.843  31.266  36.243  1.00  0.00     0.013 A 
ATOM     21  C   UNL     1      23.132  31.519  35.658  1.00  0.00     0.121 A 
ATOM     22  C   UNL     1      20.683  32.640  36.049  1.00  0.00     0.021 A 
ATOM     23  N   UNL     1      23.007  32.858  35.461  1.00  0.00    -0.264 NA
ATOM     24  C   UNL     1      21.783  33.386  35.662  1.00  0.00     0.111 A 
ENDBRANCH  17  19
ENDBRANCH  12  14
ENDBRANCH   8  12
ENDBRANCH   1   5
BRANCH   2  25
ATOM     25  C   UNL     1      26.240  25.135  43.857  1.00  0.00     0.040 A 
ATOM     26  C   UNL     1      27.170  24.092  43.894  1.00  0.00     0.014 A 
ATOM     27  C   UNL     1      26.129  26.008  44.947  1.00  0.00     0.014 A 
ATOM     28  C   UNL     1      28.009  23.943  45.000  1.00  0.00     0.006 A 
ATOM     29  C   UNL     1      26.967  25.853  46.055  1.00  0.00     0.006 A 
ATOM     30  C   UNL     1      27.924  24.827  46.087  1.00  0.00    -0.034 A 
BRANCH  30  31
ATOM     31  C   UNL     1      28.825  24.651  47.295  1.00  0.00     0.120 C 
BRANCH  31  32
ATOM     32  N   UNL     1      29.619  23.410  47.236  1.00  0.00    -0.297 NA
ATOM     33  C   UNL     1      29.916  22.922  48.595  1.00  0.00     0.100 C 
ATOM     34  C   UNL     1      30.890  23.610  46.498  1.00  0.00     0.100 C 
ATOM     35  C   UNL     1      30.902  23.794  49.421  1.00  0.00     0.099 C 
ATOM     36  C   UNL     1      32.152  23.893  47.360  1.00  0.00     0.099 C 
ATOM     37  N   UNL     1      31.830  24.600  48.605  1.00  0.00    -0.304 NA
ATOM     38  C   UNL     1      33.029  24.953  49.357  1.00  0.00     0.105 C 
ENDBRANCH  31  32
ENDBRANCH  30  31
ENDBRANCH   2  25
TORSDOF 7
ENDMDL
MODEL 6
REMARK VINA RESULT:    18.890      5.376      7.450
REMARK INTER + INTRA:          26.173
REMARK INTER:                  25.547
REMARK INTRA:                   0.626
REMARK UNBOUND:                -0.447
REMARK SMILES Cc1ccc(NC(=O)c2ccc(CN3CCN(C)CC3)cc2)cc1Nc1nc(-c2cccnc2)cs1
REMARK SMILES IDX 6 1 7 2 8 3 5 5 2 6 3 7 24 8 4 9 23 10 1 11 25 12 26 14
REMARK SMILES IDX 27 15 36 16 28 17 35 18 29 19 30 20 34 21 31 22 33 23 32 24
REMARK SMILES IDX 9 25 10 26 22 27 11 28 21 29 12 30 13 31 14 32 15 33 20 34
REMARK SMILES IDX 16 35 19 36 17 37 18 38
REMARK H PARENT 6 4 25 13
ROOT
ATOM      1  N   UNL     1      26.627  25.174  44.541  1.00  0.00    -0.322 N 
ATOM      2  C   UNL     1      26.819  25.459  45.881  1.00  0.00     0.255 C 
ATOM      3  O   UNL     1      26.018  25.985  46.644  1.00  0.00    -0.269 OA
ATOM      4  H   UNL     1      27.332  24.605  44.093  1.00  0.00     0.170 HD
ENDROOT
BRANCH   1   5
ATOM      5  C   UNL     1      25.495  25.479  43.755  1.00  0.00     0.043 A 
ATOM      6  C   UNL     1      23.201  26.233  42.291  1.00  0.00    -0.027 A 
ATOM      7  C   UNL     1      23.497  26.840  43.517  1.00  0.00     0.008 A 
ATOM      8  C   UNL     1      24.046  25.216  41.810  1.00  0.00     0.045 A 
ATOM      9  C   UNL     1      24.633  26.468  44.240  1.00  0.00     0.026 A 
ATOM     10  C   UNL     1      25.188  24.852  42.547  1.00  0.00     0.052 A 
ATOM     11  C   UNL     1      21.971  26.659  41.538  1.00  0.00     0.046 C 
BRANCH   8  12
ATOM     12  N   UNL     1      23.757  24.546  40.597  1.00  0.00    -0.331 N 
ATOM     13  H   UNL     1      22.822  24.147  40.621  1.00  0.00     0.169 HD
BRANCH  12  14
ATOM     14  C   UNL     1      24.018  25.075  39.370  1.00  0.00     0.187 A 
ATOM     15  N   UNL     1      23.200  25.945  38.815  1.00  0.00    -0.220 NA
ATOM     16  S   UNL     1      25.387  24.680  38.394  1.00  0.00    -0.105 S 
ATOM     17  C   UNL     1      23.645  26.334  37.560  1.00  0.00     0.085 A 
ATOM     18  C   UNL     1      24.833  25.747  37.174  1.00  0.00     0.097 A 
BRANCH  17  19
ATOM     19  C   UNL     1      22.879  27.285  36.760  1.00  0.00     0.019 A 
ATOM     20  C   UNL     1      21.746  26.933  36.019  1.00  0.00     0.013 A 
ATOM     21  C   UNL     1      23.261  28.625  36.718  1.00  0.00     0.121 A 
ATOM     22  C   UNL     1      21.060  27.905  35.287  1.00  0.00     0.021 A 
ATOM     23  N   UNL     1      22.615  29.592  36.014  1.00  0.00    -0.264 NA
ATOM     24  C   UNL     1      21.528  29.207  35.316  1.00  0.00     0.111 A 
ENDBRANCH  17  19
ENDBRANCH  12  14
ENDBRANCH   8  12
ENDBRANCH   1   5
BRANCH   2  25
ATOM     25  C   UNL     1      28.133  25.016  46.425  1.00  0.00     0.040 A 
ATOM     26  C   UNL     1      28.556  23.708  46.170  1.00  0.00     0.014 A 
ATOM     27  C   UNL     1      28.936  25.870  47.191  1.00  0.00     0.014 A 
ATOM     28  C   UNL     1      29.790  23.267  46.648  1.00  0.00     0.006 A 
ATOM     29  C   UNL     1      30.170  25.424  47.673  1.00  0.00     0.006 A 
ATOM     30  C   UNL     1      30.615  24.123  47.395  1.00  0.00    -0.034 A 
BRANCH  30  31
ATOM     31  C   UNL     1      31.949  23.634  47.930  1.00  0.00     0.120 C 
BRANCH  31  32
ATOM     32  N   UNL     1      32.191  24.051  49.323  1.00  0.00    -0.297 NA
ATOM     33  C   UNL     1      32.575  25.474  49.376  1.00  0.00     0.100 C 
ATOM     34  C   UNL     1      33.251  23.234  49.962  1.00  0.00     0.100 C 
ATOM     35  C   UNL     1      33.969  25.816  48.781  1.00  0.00     0.099 C 
ATOM     36  C   UNL     1      34.683  23.837  49.963  1.00  0.00     0.099 C 
ATOM     37  N   UNL     1      34.927  24.694  48.796  1.00  0.00    -0.304 NA
ATOM     38  C   UNL     1      36.305  25.172  48.752  1.00  0.00     0.105 C 
ENDBRANCH  31  32
ENDBRANCH  30  31
ENDBRANCH   2  25
TORSDOF 7
ENDMDL
MODEL 7
REMARK VINA RESULT:    19.192      5.977     11.926
REMARK INTER + INTRA:          26.599
REMARK INTER:                  26.145
REMARK INTRA:                   0.454
REMARK UNBOUND:                -0.447
REMARK SMILES Cc1ccc(NC(=O)c2ccc(CN3CCN(C)CC3)cc2)cc1Nc1nc(-c2cccnc2)cs1
REMARK SMILES IDX 6 1 7 2 8 3 5 5 2 6 3 7 24 8 4 9 23 10 1 11 25 12 26 14
REMARK SMILES IDX 27 15 36 16 28 17 35 18 29 19 30 20 34 21 31 22 33 23 32 24
REMARK SMILES IDX 9 25 10 26 22 27 11 28 21 29 12 30 13 31 14 32 15 33 20 34
REMARK SMILES IDX 16 35 19 36 17 37 18 38
REMARK H PARENT 6 4 25 13
ROOT
ATOM      1  N   UNL     1      25.118  24.768  40.934  1.00  0.00    -0.322 N 
ATOM      2  C   UNL     1      25.178  25.307  39.661  1.00  0.00     0.255 C 
ATOM      3  O   UNL     1      25.393  26.476  39.366  1.00  0.00    -0.269 OA
ATOM      4  H   UNL     1      25.078  23.760  40.997  1.00  0.00     0.170 HD
ENDROOT
BRANCH   1   5
ATOM      5  C   UNL     1      25.234  25.456  42.160  1.00  0.00     0.043 A 
ATOM      6  C   UNL     1      25.368  26.967  44.542  1.00  0.00    -0.027 A 
ATOM      7  C   UNL     1      24.884  27.540  43.359  1.00  0.00     0.008 A 
ATOM      8  C   UNL     1      25.819  25.634  44.522  1.00  0.00     0.045 A 
ATOM      9  C   UNL     1      24.816  26.790  42.182  1.00  0.00     0.026 A 
ATOM     10  C   UNL     1      25.743  24.891  43.330  1.00  0.00     0.052 A 
ATOM     11  C   UNL     1      25.426  27.802  45.792  1.00  0.00     0.046 C 
BRANCH   8  12
ATOM     12  N   UNL     1      26.357  25.034  45.686  1.00  0.00    -0.331 N 
ATOM     13  H   UNL     1      25.640  24.517  46.189  1.00  0.00     0.169 HD
BRANCH  12  14
ATOM     14  C   UNL     1      27.534  24.350  45.697  1.00  0.00     0.187 A 
ATOM     15  N   UNL     1      28.469  24.618  46.584  1.00  0.00    -0.220 NA
ATOM     16  S   UNL     1      27.964  23.102  44.582  1.00  0.00    -0.105 S 
ATOM     17  C   UNL     1      29.591  23.822  46.400  1.00  0.00     0.085 A 
ATOM     18  C   UNL     1      29.483  22.929  45.354  1.00  0.00     0.097 A 
BRANCH  17  19
ATOM     19  C   UNL     1      30.756  23.965  47.267  1.00  0.00     0.019 A 
ATOM     20  C   UNL     1      30.678  24.373  48.603  1.00  0.00     0.013 A 
ATOM     21  C   UNL     1      32.029  23.679  46.775  1.00  0.00     0.121 A 
ATOM     22  C   UNL     1      31.841  24.475  49.371  1.00  0.00     0.021 A 
ATOM     23  N   UNL     1      33.176  23.770  47.497  1.00  0.00    -0.264 NA
ATOM     24  C   UNL     1      33.053  24.166  48.779  1.00  0.00     0.111 A 
ENDBRANCH  17  19
ENDBRANCH  12  14
ENDBRANCH   8  12
ENDBRANCH   1   5
BRANCH   2  25
ATOM     25  C   UNL     1      25.007  24.317  38.561  1.00  0.00     0.040 A 
ATOM     26  C   UNL     1      25.735  23.125  38.617  1.00  0.00     0.014 A 
ATOM     27  C   UNL     1      24.153  24.562  37.479  1.00  0.00     0.014 A 
ATOM     28  C   UNL     1      25.585  22.167  37.613  1.00  0.00     0.006 A 
ATOM     29  C   UNL     1      24.007  23.602  36.472  1.00  0.00     0.006 A 
ATOM     30  C   UNL     1      24.712  22.390  36.536  1.00  0.00    -0.034 A 
BRANCH  30  31
ATOM     31  C   UNL     1      24.564  21.354  35.437  1.00  0.00     0.120 C 
BRANCH  31  32
ATOM     32  N   UNL     1      23.160  20.966  35.206  1.00  0.00    -0.297 NA
ATOM     33  C   UNL     1      22.424  20.912  36.482  1.00  0.00     0.100 C 
ATOM     34  C   UNL     1      23.061  19.652  34.526  1.00  0.00     0.100 C 
ATOM     35  C   UNL     1      22.831  19.762  37.444  1.00  0.00     0.099 C 
ATOM     36  C   UNL     1      22.824  18.418  35.440  1.00  0.00     0.099 C 
ATOM     37  N   UNL     1      23.419  18.588  36.771  1.00  0.00    -0.304 NA
ATOM     38  C   UNL     1      23.282  17.385  37.586  1.00  0.00     0.105 C 
ENDBRANCH  31  32
ENDBRANCH  30  31
ENDBRANCH   2  25
TORSDOF 7
ENDMDL
