MODEL 1
REMARK VINA RESULT:    -9.202      0.000      0.000
REMARK INTER + INTRA:         -15.304
REMARK INTER:                 -13.506
REMARK INTRA:                  -1.798
REMARK UNBOUND:                -1.798
REMARK SMILES CN1CCN(CCOc2cc3c(c(OC4CCOCC4)c2)C(Nc2c(Cl)ccc4c2OCO4)N=CN3)CC1
REMARK SMILES IDX 8 1 7 2 6 3 5 4 2 5 3 6 38 7 4 8 37 9 1 10 9 11 21 12 10 13
REMARK SMILES IDX 13 14 11 15 12 16 36 17 22 18 35 19 34 20 14 22 15 23 16 24
REMARK SMILES IDX 20 25 17 26 19 27 18 28 23 29 24 31 30 32 25 33 31 34 29 35
REMARK SMILES IDX 27 36 32 37 33 38 28 39 26 40
REMARK H PARENT 36 21 23 30
ROOT
ATOM      1  O   UNL     1      -9.190  16.115  -6.350  1.00  0.00    -0.492 OA
ENDROOT
BRANCH   1   2
ATOM      2  C   UNL     1      -7.836  15.763  -6.505  1.00  0.00     0.245 C 
BRANCH   2   3
ATOM      3  C   UNL     1      -7.364  14.762  -5.436  1.00  0.00     0.126 C 
BRANCH   3   4
ATOM      4  N   UNL     1      -8.078  14.790  -4.164  1.00  0.00    -0.297 NA
ATOM      5  N   UNL     1      -8.437  13.800  -1.437  1.00  0.00    -0.304 NA
ATOM      6  C   UNL     1      -9.307  13.381  -2.521  1.00  0.00     0.099 C 
ATOM      7  C   UNL     1      -7.929  15.133  -1.710  1.00  0.00     0.099 C 
ATOM      8  C   UNL     1      -8.599  13.456  -3.882  1.00  0.00     0.100 C 
ATOM      9  C   UNL     1      -7.202  15.177  -3.068  1.00  0.00     0.100 C 
ATOM     10  C   UNL     1      -9.157  13.774  -0.176  1.00  0.00     0.105 C 
ENDBRANCH   3   4
ENDBRANCH   2   3
ENDBRANCH   1   2
BRANCH   1  11
ATOM     11  C   UNL     1      -9.994  15.894  -7.441  1.00  0.00     0.125 A 
ATOM     12  C   UNL     1      -9.730  14.920  -8.332  1.00  0.00     0.093 A 
ATOM     13  C   UNL     1     -11.094  16.615  -7.685  1.00  0.00     0.073 A 
ATOM     14  C   UNL     1     -10.482  14.635  -9.419  1.00  0.00     0.132 A 
ATOM     15  C   UNL     1     -11.868  16.374  -8.754  1.00  0.00     0.054 A 
ATOM     16  C   UNL     1     -11.594  15.386  -9.651  1.00  0.00     0.062 A 
ATOM     17  N   UNL     1     -12.876  17.135  -8.862  1.00  0.00    -0.346 N 
ATOM     18  C   UNL     1     -12.462  15.254 -10.695  1.00  0.00     0.236 C 
ATOM     19  C   UNL     1     -13.623  16.935  -9.855  1.00  0.00     0.193 C 
ATOM     20  N   UNL     1     -13.457  16.053 -10.742  1.00  0.00    -0.246 NA
ATOM     21  H   UNL     1     -13.065  17.844  -8.205  1.00  0.00     0.167 HD
BRANCH  14  22
ATOM     22  O   UNL     1     -10.099  13.619 -10.275  1.00  0.00    -0.490 OA
BRANCH  22  23
ATOM     23  C   UNL     1     -10.010  12.273  -9.872  1.00  0.00     0.178 C 
ATOM     24  C   UNL     1     -11.095  11.861  -8.877  1.00  0.00     0.073 C 
ATOM     25  C   UNL     1     -10.161  11.445 -11.159  1.00  0.00     0.073 C 
ATOM     26  C   UNL     1     -11.183  10.344  -8.755  1.00  0.00     0.164 C 
ATOM     27  C   UNL     1     -10.304   9.958 -10.852  1.00  0.00     0.164 C 
ATOM     28  O   UNL     1     -11.408   9.752 -10.012  1.00  0.00    -0.381 OA
ENDBRANCH  22  23
ENDBRANCH  14  22
BRANCH  18  29
ATOM     29  N   UNL     1     -12.533  14.458 -11.697  1.00  0.00    -0.355 N 
ATOM     30  H   UNL     1     -11.624  13.953 -11.868  1.00  0.00     0.163 HD
BRANCH  29  31
ATOM     31  C   UNL     1     -13.406  14.096 -12.561  1.00  0.00     0.102 A 
ATOM     32  C   UNL     1     -13.672  14.766 -13.706  1.00  0.00     0.190 A 
ATOM     33  C   UNL     1     -14.142  12.967 -12.354  1.00  0.00     0.068 A 
ATOM     34  O   UNL     1     -13.143  15.801 -14.115  1.00  0.00    -0.451 OA
ATOM     35  C   UNL     1     -14.603  14.361 -14.579  1.00  0.00     0.168 A 
ATOM     36  C   UNL     1     -15.078  12.569 -13.237  1.00  0.00     0.027 A 
ATOM     37  C   UNL     1     -13.687  16.116 -15.396  1.00  0.00     0.468 C 
ATOM     38  O   UNL     1     -14.683  15.111 -15.550  1.00  0.00    -0.454 OA
ATOM     39  C   UNL     1     -15.321  13.256 -14.362  1.00  0.00     0.052 A 
ATOM     40  Cl  UNL     1     -13.983  11.946 -10.954  1.00  0.00    -0.082 Cl
ENDBRANCH  29  31
ENDBRANCH  18  29
ENDBRANCH   1  11
TORSDOF 8
ENDMDL
MODEL 2
REMARK VINA RESULT:    -9.032      1.560      2.020
REMARK INTER + INTRA:         -15.054
REMARK INTER:                 -13.167
REMARK INTRA:                  -1.887
REMARK UNBOUND:                -1.798
REMARK SMILES CN1CCN(CCOc2cc3c(c(OC4CCOCC4)c2)C(Nc2c(Cl)ccc4c2OCO4)N=CN3)CC1
REMARK SMILES IDX 8 1 7 2 6 3 5 4 2 5 3 6 38 7 4 8 37 9 1 10 9 11 21 12 10 13
REMARK SMILES IDX 13 14 11 15 12 16 36 17 22 18 35 19 34 20 14 22 15 23 16 24
REMARK SMILES IDX 20 25 17 26 19 27 18 28 23 29 24 31 30 32 25 33 31 34 29 35
REMARK SMILES IDX 27 36 32 37 33 38 28 39 26 40
REMARK H PARENT 36 21 23 30
ROOT
ATOM      1  O   UNL     1      -9.422  16.198  -6.281  1.00  0.00    -0.492 OA
ENDROOT
BRANCH   1   2
ATOM      2  C   UNL     1      -8.026  16.228  -6.457  1.00  0.00     0.245 C 
BRANCH   2   3
ATOM      3  C   UNL     1      -7.271  15.629  -5.258  1.00  0.00     0.126 C 
BRANCH   3   4
ATOM      4  N   UNL     1      -8.066  15.346  -4.068  1.00  0.00    -0.297 NA
ATOM      5  N   UNL     1      -8.366  14.037  -1.472  1.00  0.00    -0.304 NA
ATOM      6  C   UNL     1      -9.002  13.513  -2.668  1.00  0.00     0.099 C 
ATOM      7  C   UNL     1      -8.213  15.476  -1.594  1.00  0.00     0.099 C 
ATOM      8  C   UNL     1      -8.232  13.902  -3.939  1.00  0.00     0.100 C 
ATOM      9  C   UNL     1      -7.418  15.839  -2.862  1.00  0.00     0.100 C 
ATOM     10  C   UNL     1      -9.153  13.702  -0.298  1.00  0.00     0.105 C 
ENDBRANCH   3   4
ENDBRANCH   2   3
ENDBRANCH   1   2
BRANCH   1  11
ATOM     11  C   UNL     1     -10.163  15.974  -7.416  1.00  0.00     0.125 A 
ATOM     12  C   UNL     1      -9.822  15.028  -8.310  1.00  0.00     0.093 A 
ATOM     13  C   UNL     1     -11.272  16.665  -7.702  1.00  0.00     0.073 A 
ATOM     14  C   UNL     1     -10.509  14.741  -9.440  1.00  0.00     0.132 A 
ATOM     15  C   UNL     1     -11.983  16.421  -8.813  1.00  0.00     0.054 A 
ATOM     16  C   UNL     1     -11.632  15.461  -9.714  1.00  0.00     0.062 A 
ATOM     17  N   UNL     1     -13.008  17.152  -8.959  1.00  0.00    -0.346 N 
ATOM     18  C   UNL     1     -12.442  15.323 -10.803  1.00  0.00     0.236 C 
ATOM     19  C   UNL     1     -13.697  16.949  -9.992  1.00  0.00     0.193 C 
ATOM     20  N   UNL     1     -13.458  16.091 -10.885  1.00  0.00    -0.246 NA
ATOM     21  H   UNL     1     -13.253  17.841  -8.299  1.00  0.00     0.167 HD
BRANCH  14  22
ATOM     22  O   UNL     1     -10.050  13.755 -10.294  1.00  0.00    -0.490 OA
BRANCH  22  23
ATOM     23  C   UNL     1      -9.902  12.412  -9.902  1.00  0.00     0.178 C 
ATOM     24  C   UNL     1     -10.942  11.958  -8.876  1.00  0.00     0.073 C 
ATOM     25  C   UNL     1     -10.064  11.584 -11.187  1.00  0.00     0.073 C 
ATOM     26  C   UNL     1     -10.973  10.438  -8.759  1.00  0.00     0.164 C 
ATOM     27  C   UNL     1     -10.146  10.092 -10.884  1.00  0.00     0.164 C 
ATOM     28  O   UNL     1     -11.215   9.844 -10.011  1.00  0.00    -0.381 OA
ENDBRANCH  22  23
ENDBRANCH  14  22
BRANCH  18  29
ATOM     29  N   UNL     1     -12.436  14.545 -11.822  1.00  0.00    -0.355 N 
ATOM     30  H   UNL     1     -11.478  14.463 -12.253  1.00  0.00     0.163 HD
BRANCH  29  31
ATOM     31  C   UNL     1     -13.275  13.832 -12.475  1.00  0.00     0.102 A 
ATOM     32  C   UNL     1     -13.791  12.662 -12.033  1.00  0.00     0.190 A 
ATOM     33  C   UNL     1     -13.704  14.239 -13.703  1.00  0.00     0.068 A 
ATOM     34  O   UNL     1     -13.563  12.092 -10.964  1.00  0.00    -0.451 OA
ATOM     35  C   UNL     1     -14.658  11.938 -12.752  1.00  0.00     0.168 A 
ATOM     36  C   UNL     1     -14.575  13.503 -14.421  1.00  0.00     0.027 A 
ATOM     37  C   UNL     1     -14.372  10.919 -10.891  1.00  0.00     0.468 C 
ATOM     38  O   UNL     1     -15.001  10.912 -12.167  1.00  0.00    -0.454 OA
ATOM     39  C   UNL     1     -15.066  12.345 -13.957  1.00  0.00     0.052 A 
ATOM     40  Cl  UNL     1     -13.178  15.705 -14.481  1.00  0.00    -0.082 Cl
ENDBRANCH  29  31
ENDBRANCH  18  29
ENDBRANCH   1  11
TORSDOF 8
ENDMDL
MODEL 3
REMARK VINA RESULT:    -9.005      2.915      4.116
REMARK INTER + INTRA:         -15.015
REMARK INTER:                 -12.784
REMARK INTRA:                  -2.230
REMARK UNBOUND:                -1.798
REMARK SMILES CN1CCN(CCOc2cc3c(c(OC4CCOCC4)c2)C(Nc2c(Cl)ccc4c2OCO4)N=CN3)CC1
REMARK SMILES IDX 8 1 7 2 6 3 5 4 2 5 3 6 38 7 4 8 37 9 1 10 9 11 21 12 10 13
REMARK SMILES IDX 13 14 11 15 12 16 36 17 22 18 35 19 34 20 14 22 15 23 16 24
REMARK SMILES IDX 20 25 17 26 19 27 18 28 23 29 24 31 30 32 25 33 31 34 29 35
REMARK SMILES IDX 27 36 32 37 33 38 28 39 26 40
REMARK H PARENT 36 21 23 30
ROOT
ATOM      1  O   UNL     1     -10.836  16.168  -7.982  1.00  0.00    -0.492 OA
ENDROOT
BRANCH   1   2
ATOM      2  C   UNL     1      -9.735  15.297  -7.876  1.00  0.00     0.245 C 
BRANCH   2   3
ATOM      3  C   UNL     1      -9.987  14.150  -6.884  1.00  0.00     0.126 C 
BRANCH   3   4
ATOM      4  N   UNL     1      -9.588  12.817  -7.323  1.00  0.00    -0.297 NA
ATOM      5  N   UNL     1      -9.454  10.769  -9.404  1.00  0.00    -0.304 NA
ATOM      6  C   UNL     1     -10.429  10.701  -8.330  1.00  0.00     0.099 C 
ATOM      7  C   UNL     1      -8.272  11.474  -8.944  1.00  0.00     0.099 C 
ATOM      8  C   UNL     1     -10.771  12.094  -7.783  1.00  0.00     0.100 C 
ATOM      9  C   UNL     1      -8.637  12.877  -8.423  1.00  0.00     0.100 C 
ATOM     10  C   UNL     1      -9.110   9.431  -9.855  1.00  0.00     0.105 C 
ENDBRANCH   3   4
ENDBRANCH   2   3
ENDBRANCH   1   2
BRANCH   1  11
ATOM     11  C   UNL     1     -11.696  15.921  -9.024  1.00  0.00     0.125 A 
ATOM     12  C   UNL     1     -11.504  14.895  -9.874  1.00  0.00     0.093 A 
ATOM     13  C   UNL     1     -12.782  16.667  -9.256  1.00  0.00     0.073 A 
ATOM     14  C   UNL     1     -12.314  14.582 -10.911  1.00  0.00     0.132 A 
ATOM     15  C   UNL     1     -13.611  16.400 -10.276  1.00  0.00     0.054 A 
ATOM     16  C   UNL     1     -13.410  15.359 -11.132  1.00  0.00     0.062 A 
ATOM     17  N   UNL     1     -14.597  17.189 -10.379  1.00  0.00    -0.346 N 
ATOM     18  C   UNL     1     -14.329  15.205 -12.129  1.00  0.00     0.236 C 
ATOM     19  C   UNL     1     -15.394  16.966 -11.327  1.00  0.00     0.193 C 
ATOM     20  N   UNL     1     -15.298  16.035 -12.173  1.00  0.00    -0.246 NA
ATOM     21  H   UNL     1     -14.732  17.936  -9.752  1.00  0.00     0.167 HD
BRANCH  14  22
ATOM     22  O   UNL     1     -12.004  13.511 -11.729  1.00  0.00    -0.490 OA
BRANCH  22  23
ATOM     23  C   UNL     1     -12.050  12.175 -11.290  1.00  0.00     0.178 C 
ATOM     24  C   UNL     1     -13.434  11.740 -10.806  1.00  0.00     0.073 C 
ATOM     25  C   UNL     1     -11.647  11.325 -12.507  1.00  0.00     0.073 C 
ATOM     26  C   UNL     1     -13.524  10.222 -10.690  1.00  0.00     0.164 C 
ATOM     27  C   UNL     1     -11.864   9.839 -12.245  1.00  0.00     0.164 C 
ATOM     28  O   UNL     1     -13.207   9.606 -11.915  1.00  0.00    -0.381 OA
ENDBRANCH  22  23
ENDBRANCH  14  22
BRANCH  18  29
ATOM     29  N   UNL     1     -14.472  14.363 -13.085  1.00  0.00    -0.355 N 
ATOM     30  H   UNL     1     -14.239  13.380 -12.785  1.00  0.00     0.163 HD
BRANCH  29  31
ATOM     31  C   UNL     1     -14.821  14.377 -14.316  1.00  0.00     0.102 A 
ATOM     32  C   UNL     1     -15.909  13.743 -14.810  1.00  0.00     0.190 A 
ATOM     33  C   UNL     1     -14.075  15.063 -15.228  1.00  0.00     0.068 A 
ATOM     34  O   UNL     1     -16.735  13.067 -14.192  1.00  0.00    -0.451 OA
ATOM     35  C   UNL     1     -16.234  13.771 -16.109  1.00  0.00     0.168 A 
ATOM     36  C   UNL     1     -14.408  15.084 -16.533  1.00  0.00     0.027 A 
ATOM     37  C   UNL     1     -17.749  12.642 -15.101  1.00  0.00     0.468 C 
ATOM     38  O   UNL     1     -17.258  13.131 -16.343  1.00  0.00    -0.454 OA
ATOM     39  C   UNL     1     -15.491  14.442 -16.993  1.00  0.00     0.052 A 
ATOM     40  Cl  UNL     1     -12.630  15.950 -14.832  1.00  0.00    -0.082 Cl
ENDBRANCH  29  31
ENDBRANCH  18  29
ENDBRANCH   1  11
TORSDOF 8
ENDMDL
MODEL 4
REMARK VINA RESULT:    -8.920      1.758      2.491
REMARK INTER + INTRA:         -14.890
REMARK INTER:                 -12.966
REMARK INTRA:                  -1.923
REMARK UNBOUND:                -1.798
REMARK SMILES CN1CCN(CCOc2cc3c(c(OC4CCOCC4)c2)C(Nc2c(Cl)ccc4c2OCO4)N=CN3)CC1
REMARK SMILES IDX 8 1 7 2 6 3 5 4 2 5 3 6 38 7 4 8 37 9 1 10 9 11 21 12 10 13
REMARK SMILES IDX 13 14 11 15 12 16 36 17 22 18 35 19 34 20 14 22 15 23 16 24
REMARK SMILES IDX 20 25 17 26 19 27 18 28 23 29 24 31 30 32 25 33 31 34 29 35
REMARK SMILES IDX 27 36 32 37 33 38 28 39 26 40
REMARK H PARENT 36 21 23 30
ROOT
ATOM      1  O   UNL     1     -10.181  12.698  -6.465  1.00  0.00    -0.492 OA
ENDROOT
BRANCH   1   2
ATOM      2  C   UNL     1      -8.849  12.250  -6.532  1.00  0.00     0.245 C 
BRANCH   2   3
ATOM      3  C   UNL     1      -7.863  13.235  -5.882  1.00  0.00     0.126 C 
BRANCH   3   4
ATOM      4  N   UNL     1      -8.370  14.578  -5.621  1.00  0.00    -0.297 NA
ATOM      5  N   UNL     1      -7.921  17.331  -4.747  1.00  0.00    -0.304 NA
ATOM      6  C   UNL     1      -8.556  16.351  -3.884  1.00  0.00     0.099 C 
ATOM      7  C   UNL     1      -8.186  17.000  -6.135  1.00  0.00     0.099 C 
ATOM      8  C   UNL     1      -8.115  14.920  -4.225  1.00  0.00     0.100 C 
ATOM      9  C   UNL     1      -7.712  15.570  -6.459  1.00  0.00     0.100 C 
ATOM     10  C   UNL     1      -8.407  18.664  -4.435  1.00  0.00     0.105 C 
ENDBRANCH   3   4
ENDBRANCH   2   3
ENDBRANCH   1   2
BRANCH   1  11
ATOM     11  C   UNL     1     -10.731  13.121  -7.650  1.00  0.00     0.125 A 
ATOM     12  C   UNL     1     -10.828  12.306  -8.718  1.00  0.00     0.093 A 
ATOM     13  C   UNL     1     -11.216  14.356  -7.822  1.00  0.00     0.073 A 
ATOM     14  C   UNL     1     -11.369  12.647  -9.910  1.00  0.00     0.132 A 
ATOM     15  C   UNL     1     -11.756  14.742  -8.987  1.00  0.00     0.054 A 
ATOM     16  C   UNL     1     -11.851  13.911 -10.063  1.00  0.00     0.062 A 
ATOM     17  N   UNL     1     -12.173  15.938  -9.009  1.00  0.00    -0.346 N 
ATOM     18  C   UNL     1     -12.418  14.435 -11.188  1.00  0.00     0.236 C 
ATOM     19  C   UNL     1     -12.685  16.332 -10.089  1.00  0.00     0.193 C 
ATOM     20  N   UNL     1     -12.817  15.646 -11.140  1.00  0.00    -0.246 NA
ATOM     21  H   UNL     1     -12.101  16.528  -8.223  1.00  0.00     0.167 HD
BRANCH  14  22
ATOM     22  O   UNL     1     -11.397  11.727 -10.942  1.00  0.00    -0.490 OA
BRANCH  22  23
ATOM     23  C   UNL     1     -10.835  10.441 -10.835  1.00  0.00     0.178 C 
ATOM     24  C   UNL     1     -11.877   9.322 -10.798  1.00  0.00     0.073 C 
ATOM     25  C   UNL     1      -9.952  10.271 -12.082  1.00  0.00     0.073 C 
ATOM     26  C   UNL     1     -11.232   7.963 -11.048  1.00  0.00     0.164 C 
ATOM     27  C   UNL     1      -9.448   8.838 -12.217  1.00  0.00     0.164 C 
ATOM     28  O   UNL     1     -10.536   7.956 -12.270  1.00  0.00    -0.381 OA
ENDBRANCH  22  23
ENDBRANCH  14  22
BRANCH  18  29
ATOM     29  N   UNL     1     -12.678  13.968 -12.353  1.00  0.00    -0.355 N 
ATOM     30  H   UNL     1     -11.835  13.517 -12.796  1.00  0.00     0.163 HD
BRANCH  29  31
ATOM     31  C   UNL     1     -13.683  13.893 -13.143  1.00  0.00     0.102 A 
ATOM     32  C   UNL     1     -13.891  14.716 -14.196  1.00  0.00     0.190 A 
ATOM     33  C   UNL     1     -14.634  12.936 -12.945  1.00  0.00     0.068 A 
ATOM     34  O   UNL     1     -13.179  15.647 -14.579  1.00  0.00    -0.451 OA
ATOM     35  C   UNL     1     -14.962  14.612 -14.992  1.00  0.00     0.168 A 
ATOM     36  C   UNL     1     -15.710  12.841 -13.750  1.00  0.00     0.027 A 
ATOM     37  C   UNL     1     -13.750  16.199 -15.765  1.00  0.00     0.468 C 
ATOM     38  O   UNL     1     -14.956  15.455 -15.888  1.00  0.00    -0.454 OA
ATOM     39  C   UNL     1     -15.890  13.674 -14.785  1.00  0.00     0.052 A 
ATOM     40  Cl  UNL     1     -14.586  11.769 -11.654  1.00  0.00    -0.082 Cl
ENDBRANCH  29  31
ENDBRANCH  18  29
ENDBRANCH   1  11
TORSDOF 8
ENDMDL
MODEL 5
REMARK VINA RESULT:    -8.912      1.647      2.550
REMARK INTER + INTRA:         -14.878
REMARK INTER:                 -12.719
REMARK INTRA:                  -2.158
REMARK UNBOUND:                -1.798
REMARK SMILES CN1CCN(CCOc2cc3c(c(OC4CCOCC4)c2)C(Nc2c(Cl)ccc4c2OCO4)N=CN3)CC1
REMARK SMILES IDX 8 1 7 2 6 3 5 4 2 5 3 6 38 7 4 8 37 9 1 10 9 11 21 12 10 13
REMARK SMILES IDX 13 14 11 15 12 16 36 17 22 18 35 19 34 20 14 22 15 23 16 24
REMARK SMILES IDX 20 25 17 26 19 27 18 28 23 29 24 31 30 32 25 33 31 34 29 35
REMARK SMILES IDX 27 36 32 37 33 38 28 39 26 40
REMARK H PARENT 36 21 23 30
ROOT
ATOM      1  O   UNL     1      -9.539  15.848  -6.607  1.00  0.00    -0.492 OA
ENDROOT
BRANCH   1   2
ATOM      2  C   UNL     1      -8.375  15.059  -6.541  1.00  0.00     0.245 C 
BRANCH   2   3
ATOM      3  C   UNL     1      -8.394  14.083  -5.353  1.00  0.00     0.126 C 
BRANCH   3   4
ATOM      4  N   UNL     1      -8.061  12.694  -5.652  1.00  0.00    -0.297 NA
ATOM      5  N   UNL     1      -7.564  10.570  -7.597  1.00  0.00    -0.304 NA
ATOM      6  C   UNL     1      -8.824  10.668  -6.881  1.00  0.00     0.099 C 
ATOM      7  C   UNL     1      -6.500  11.134  -6.787  1.00  0.00     0.099 C 
ATOM      8  C   UNL     1      -9.129  12.113  -6.461  1.00  0.00     0.100 C 
ATOM      9  C   UNL     1      -6.817  12.591  -6.400  1.00  0.00     0.100 C 
ATOM     10  C   UNL     1      -7.280   9.183  -7.924  1.00  0.00     0.105 C 
ENDBRANCH   3   4
ENDBRANCH   2   3
ENDBRANCH   1   2
BRANCH   1  11
ATOM     11  C   UNL     1     -10.310  15.682  -7.731  1.00  0.00     0.125 A 
ATOM     12  C   UNL     1     -10.037  14.734  -8.646  1.00  0.00     0.093 A 
ATOM     13  C   UNL     1     -11.386  16.436  -7.986  1.00  0.00     0.073 A 
ATOM     14  C   UNL     1     -10.758  14.502  -9.767  1.00  0.00     0.132 A 
ATOM     15  C   UNL     1     -12.128  16.249  -9.088  1.00  0.00     0.054 A 
ATOM     16  C   UNL     1     -11.845  15.286 -10.009  1.00  0.00     0.062 A 
ATOM     17  N   UNL     1     -13.115  17.035  -9.203  1.00  0.00    -0.346 N 
ATOM     18  C   UNL     1     -12.680  15.209 -11.085  1.00  0.00     0.236 C 
ATOM     19  C   UNL     1     -13.832  16.886 -10.226  1.00  0.00     0.193 C 
ATOM     20  N   UNL     1     -13.655  16.031 -11.137  1.00  0.00    -0.246 NA
ATOM     21  H   UNL     1     -13.311  17.725  -8.528  1.00  0.00     0.167 HD
BRANCH  14  22
ATOM     22  O   UNL     1     -10.368  13.508 -10.645  1.00  0.00    -0.490 OA
BRANCH  22  23
ATOM     23  C   UNL     1     -10.320  12.148 -10.287  1.00  0.00     0.178 C 
ATOM     24  C   UNL     1     -11.461  11.720  -9.364  1.00  0.00     0.073 C 
ATOM     25  C   UNL     1     -10.415  11.368 -11.608  1.00  0.00     0.073 C 
ATOM     26  C   UNL     1     -11.577  10.201  -9.301  1.00  0.00     0.164 C 
ATOM     27  C   UNL     1     -10.597   9.874 -11.362  1.00  0.00     0.164 C 
ATOM     28  O   UNL     1     -11.745   9.657 -10.587  1.00  0.00    -0.381 OA
ENDBRANCH  22  23
ENDBRANCH  14  22
BRANCH  18  29
ATOM     29  N   UNL     1     -12.734  14.449 -12.117  1.00  0.00    -0.355 N 
ATOM     30  H   UNL     1     -11.817  13.963 -12.300  1.00  0.00     0.163 HD
BRANCH  29  31
ATOM     31  C   UNL     1     -13.597  14.109 -13.000  1.00  0.00     0.102 A 
ATOM     32  C   UNL     1     -13.819  14.784 -14.151  1.00  0.00     0.190 A 
ATOM     33  C   UNL     1     -14.365  13.000 -12.808  1.00  0.00     0.068 A 
ATOM     34  O   UNL     1     -13.255  15.805 -14.549  1.00  0.00    -0.451 OA
ATOM     35  C   UNL     1     -14.740  14.401 -15.044  1.00  0.00     0.168 A 
ATOM     36  C   UNL     1     -15.291  12.624 -13.712  1.00  0.00     0.027 A 
ATOM     37  C   UNL     1     -13.763  16.131 -15.842  1.00  0.00     0.468 C 
ATOM     38  O   UNL     1     -14.780  15.152 -16.018  1.00  0.00    -0.454 OA
ATOM     39  C   UNL     1     -15.491  13.315 -14.842  1.00  0.00     0.052 A 
ATOM     40  Cl  UNL     1     -14.263  11.976 -11.403  1.00  0.00    -0.082 Cl
ENDBRANCH  29  31
ENDBRANCH  18  29
ENDBRANCH   1  11
TORSDOF 8
ENDMDL
MODEL 6
REMARK VINA RESULT:    -8.878      2.039      2.738
REMARK INTER + INTRA:         -14.829
REMARK INTER:                 -13.208
REMARK INTRA:                  -1.621
REMARK UNBOUND:                -1.798
REMARK SMILES CN1CCN(CCOc2cc3c(c(OC4CCOCC4)c2)C(Nc2c(Cl)ccc4c2OCO4)N=CN3)CC1
REMARK SMILES IDX 8 1 7 2 6 3 5 4 2 5 3 6 38 7 4 8 37 9 1 10 9 11 21 12 10 13
REMARK SMILES IDX 13 14 11 15 12 16 36 17 22 18 35 19 34 20 14 22 15 23 16 24
REMARK SMILES IDX 20 25 17 26 19 27 18 28 23 29 24 31 30 32 25 33 31 34 29 35
REMARK SMILES IDX 27 36 32 37 33 38 28 39 26 40
REMARK H PARENT 36 21 23 30
ROOT
ATOM      1  O   UNL     1      -9.280  16.065  -6.303  1.00  0.00    -0.492 OA
ENDROOT
BRANCH   1   2
ATOM      2  C   UNL     1      -7.930  16.384  -6.543  1.00  0.00     0.245 C 
BRANCH   2   3
ATOM      3  C   UNL     1      -7.099  16.431  -5.249  1.00  0.00     0.126 C 
BRANCH   3   4
ATOM      4  N   UNL     1      -6.907  17.747  -4.651  1.00  0.00    -0.297 NA
ATOM      5  N   UNL     1      -7.573  20.590  -4.514  1.00  0.00    -0.304 NA
ATOM      6  C   UNL     1      -6.359  20.122  -5.158  1.00  0.00     0.099 C 
ATOM      7  C   UNL     1      -7.958  19.660  -3.468  1.00  0.00     0.099 C 
ATOM      8  C   UNL     1      -6.513  18.691  -5.693  1.00  0.00     0.100 C 
ATOM      9  C   UNL     1      -8.130  18.237  -4.033  1.00  0.00     0.100 C 
ATOM     10  C   UNL     1      -7.370  21.921  -3.968  1.00  0.00     0.105 C 
ENDBRANCH   3   4
ENDBRANCH   2   3
ENDBRANCH   1   2
BRANCH   1  11
ATOM     11  C   UNL     1     -10.054  15.861  -7.419  1.00  0.00     0.125 A 
ATOM     12  C   UNL     1      -9.771  14.894  -8.311  1.00  0.00     0.093 A 
ATOM     13  C   UNL     1     -11.141  16.593  -7.688  1.00  0.00     0.073 A 
ATOM     14  C   UNL     1     -10.493  14.625  -9.423  1.00  0.00     0.132 A 
ATOM     15  C   UNL     1     -11.884  16.369  -8.780  1.00  0.00     0.054 A 
ATOM     16  C   UNL     1     -11.592  15.387  -9.679  1.00  0.00     0.062 A 
ATOM     17  N   UNL     1     -12.883  17.138  -8.911  1.00  0.00    -0.346 N 
ATOM     18  C   UNL     1     -12.431  15.272 -10.749  1.00  0.00     0.236 C 
ATOM     19  C   UNL     1     -13.602  16.954  -9.927  1.00  0.00     0.193 C 
ATOM     20  N   UNL     1     -13.417  16.079 -10.817  1.00  0.00    -0.246 NA
ATOM     21  H   UNL     1     -13.085  17.843  -8.252  1.00  0.00     0.167 HD
BRANCH  14  22
ATOM     22  O   UNL     1     -10.093  13.614 -10.277  1.00  0.00    -0.490 OA
BRANCH  22  23
ATOM     23  C   UNL     1      -9.992  12.269  -9.875  1.00  0.00     0.178 C 
ATOM     24  C   UNL     1     -11.073  11.847  -8.879  1.00  0.00     0.073 C 
ATOM     25  C   UNL     1     -10.137  11.440 -11.162  1.00  0.00     0.073 C 
ATOM     26  C   UNL     1     -11.147  10.329  -8.758  1.00  0.00     0.164 C 
ATOM     27  C   UNL     1     -10.267   9.952 -10.855  1.00  0.00     0.164 C 
ATOM     28  O   UNL     1     -11.368   9.736 -10.014  1.00  0.00    -0.381 OA
ENDBRANCH  22  23
ENDBRANCH  14  22
BRANCH  18  29
ATOM     29  N   UNL     1     -12.479  14.486 -11.761  1.00  0.00    -0.355 N 
ATOM     30  H   UNL     1     -11.550  14.026 -11.950  1.00  0.00     0.163 HD
BRANCH  29  31
ATOM     31  C   UNL     1     -13.346  14.096 -12.618  1.00  0.00     0.102 A 
ATOM     32  C   UNL     1     -13.615  14.737 -13.779  1.00  0.00     0.190 A 
ATOM     33  C   UNL     1     -14.071  12.965 -12.387  1.00  0.00     0.068 A 
ATOM     34  O   UNL     1     -13.096  15.768 -14.210  1.00  0.00    -0.451 OA
ATOM     35  C   UNL     1     -14.540  14.302 -14.645  1.00  0.00     0.168 A 
ATOM     36  C   UNL     1     -15.001  12.537 -13.264  1.00  0.00     0.027 A 
ATOM     37  C   UNL     1     -13.640  16.048 -15.499  1.00  0.00     0.468 C 
ATOM     38  O   UNL     1     -14.625  15.030 -15.633  1.00  0.00    -0.454 OA
ATOM     39  C   UNL     1     -15.247  13.196 -14.404  1.00  0.00     0.052 A 
ATOM     40  Cl  UNL     1     -13.904  11.977 -10.964  1.00  0.00    -0.082 Cl
ENDBRANCH  29  31
ENDBRANCH  18  29
ENDBRANCH   1  11
TORSDOF 8
ENDMDL
MODEL 7
REMARK VINA RESULT:    -8.668      2.498      3.439
REMARK INTER + INTRA:         -14.520
REMARK INTER:                 -12.779
REMARK INTRA:                  -1.741
REMARK UNBOUND:                -1.798
REMARK SMILES CN1CCN(CCOc2cc3c(c(OC4CCOCC4)c2)C(Nc2c(Cl)ccc4c2OCO4)N=CN3)CC1
REMARK SMILES IDX 8 1 7 2 6 3 5 4 2 5 3 6 38 7 4 8 37 9 1 10 9 11 21 12 10 13
REMARK SMILES IDX 13 14 11 15 12 16 36 17 22 18 35 19 34 20 14 22 15 23 16 24
REMARK SMILES IDX 20 25 17 26 19 27 18 28 23 29 24 31 30 32 25 33 31 34 29 35
REMARK SMILES IDX 27 36 32 37 33 38 28 39 26 40
REMARK H PARENT 36 21 23 30
ROOT
ATOM      1  O   UNL     1      -9.381  16.241  -6.271  1.00  0.00    -0.492 OA
ENDROOT
BRANCH   1   2
ATOM      2  C   UNL     1      -7.990  16.345  -6.462  1.00  0.00     0.245 C 
BRANCH   2   3
ATOM      3  C   UNL     1      -7.218  16.415  -5.133  1.00  0.00     0.126 C 
BRANCH   3   4
ATOM      4  N   UNL     1      -6.970  17.750  -4.599  1.00  0.00    -0.297 NA
ATOM      5  N   UNL     1      -7.671  20.582  -4.429  1.00  0.00    -0.304 NA
ATOM      6  C   UNL     1      -6.555  20.120  -5.235  1.00  0.00     0.099 C 
ATOM      7  C   UNL     1      -7.878  19.672  -3.317  1.00  0.00     0.099 C 
ATOM      8  C   UNL     1      -6.754  18.674  -5.709  1.00  0.00     0.100 C 
ATOM      9  C   UNL     1      -8.100  18.233  -3.819  1.00  0.00     0.100 C 
ATOM     10  C   UNL     1      -7.420  21.930  -3.949  1.00  0.00     0.105 C 
ENDBRANCH   3   4
ENDBRANCH   2   3
ENDBRANCH   1   2
BRANCH   1  11
ATOM     11  C   UNL     1     -10.124  16.011  -7.402  1.00  0.00     0.125 A 
ATOM     12  C   UNL     1      -9.787  15.058  -8.291  1.00  0.00     0.093 A 
ATOM     13  C   UNL     1     -11.233  16.701  -7.691  1.00  0.00     0.073 A 
ATOM     14  C   UNL     1     -10.477  14.764  -9.417  1.00  0.00     0.132 A 
ATOM     15  C   UNL     1     -11.946  16.452  -8.798  1.00  0.00     0.054 A 
ATOM     16  C   UNL     1     -11.599  15.485  -9.693  1.00  0.00     0.062 A 
ATOM     17  N   UNL     1     -12.971  17.183  -8.946  1.00  0.00    -0.346 N 
ATOM     18  C   UNL     1     -12.412  15.341 -10.779  1.00  0.00     0.236 C 
ATOM     19  C   UNL     1     -13.663  16.974  -9.976  1.00  0.00     0.193 C 
ATOM     20  N   UNL     1     -13.427  16.110 -10.865  1.00  0.00    -0.246 NA
ATOM     21  H   UNL     1     -13.213  17.877  -8.290  1.00  0.00     0.167 HD
BRANCH  14  22
ATOM     22  O   UNL     1     -10.022  13.772 -10.266  1.00  0.00    -0.490 OA
BRANCH  22  23
ATOM     23  C   UNL     1      -9.453  12.572  -9.802  1.00  0.00     0.178 C 
ATOM     24  C   UNL     1     -10.489  11.533  -9.371  1.00  0.00     0.073 C 
ATOM     25  C   UNL     1      -8.638  12.016 -10.982  1.00  0.00     0.073 C 
ATOM     26  C   UNL     1      -9.858  10.152  -9.229  1.00  0.00     0.164 C 
ATOM     27  C   UNL     1      -8.140  10.603 -10.700  1.00  0.00     0.164 C 
ATOM     28  O   UNL     1      -9.229   9.763 -10.426  1.00  0.00    -0.381 OA
ENDBRANCH  22  23
ENDBRANCH  14  22
BRANCH  18  29
ATOM     29  N   UNL     1     -12.410  14.557 -11.794  1.00  0.00    -0.355 N 
ATOM     30  H   UNL     1     -11.453  14.468 -12.225  1.00  0.00     0.163 HD
BRANCH  29  31
ATOM     31  C   UNL     1     -13.252  13.841 -12.441  1.00  0.00     0.102 A 
ATOM     32  C   UNL     1     -13.749  12.662 -12.003  1.00  0.00     0.190 A 
ATOM     33  C   UNL     1     -13.704  14.257 -13.658  1.00  0.00     0.068 A 
ATOM     34  O   UNL     1     -13.499  12.084 -10.944  1.00  0.00    -0.451 OA
ATOM     35  C   UNL     1     -14.621  11.937 -12.717  1.00  0.00     0.168 A 
ATOM     36  C   UNL     1     -14.579  13.519 -14.370  1.00  0.00     0.027 A 
ATOM     37  C   UNL     1     -14.296  10.902 -10.870  1.00  0.00     0.468 C 
ATOM     38  O   UNL     1     -14.944  10.902 -12.137  1.00  0.00    -0.454 OA
ATOM     39  C   UNL     1     -15.051  12.352 -13.911  1.00  0.00     0.052 A 
ATOM     40  Cl  UNL     1     -13.204  15.736 -14.428  1.00  0.00    -0.082 Cl
ENDBRANCH  29  31
ENDBRANCH  18  29
ENDBRANCH   1  11
TORSDOF 8
ENDMDL
MODEL 8
REMARK VINA RESULT:    -8.618      2.098      2.867
REMARK INTER + INTRA:         -14.447
REMARK INTER:                 -12.846
REMARK INTRA:                  -1.601
REMARK UNBOUND:                -1.798
REMARK SMILES CN1CCN(CCOc2cc3c(c(OC4CCOCC4)c2)C(Nc2c(Cl)ccc4c2OCO4)N=CN3)CC1
REMARK SMILES IDX 8 1 7 2 6 3 5 4 2 5 3 6 38 7 4 8 37 9 1 10 9 11 21 12 10 13
REMARK SMILES IDX 13 14 11 15 12 16 36 17 22 18 35 19 34 20 14 22 15 23 16 24
REMARK SMILES IDX 20 25 17 26 19 27 18 28 23 29 24 31 30 32 25 33 31 34 29 35
REMARK SMILES IDX 27 36 32 37 33 38 28 39 26 40
REMARK H PARENT 36 21 23 30
ROOT
ATOM      1  O   UNL     1     -10.651  15.855  -7.835  1.00  0.00    -0.492 OA
ENDROOT
BRANCH   1   2
ATOM      2  C   UNL     1     -10.518  17.178  -7.371  1.00  0.00     0.245 C 
BRANCH   2   3
ATOM      3  C   UNL     1      -9.193  17.408  -6.625  1.00  0.00     0.126 C 
BRANCH   3   4
ATOM      4  N   UNL     1      -8.974  16.599  -5.431  1.00  0.00    -0.297 NA
ATOM      5  N   UNL     1      -7.341  15.892  -3.112  1.00  0.00    -0.304 NA
ATOM      6  C   UNL     1      -7.361  15.071  -4.309  1.00  0.00     0.099 C 
ATOM      7  C   UNL     1      -8.611  16.582  -2.975  1.00  0.00     0.099 C 
ATOM      8  C   UNL     1      -7.702  15.895  -5.559  1.00  0.00     0.100 C 
ATOM      9  C   UNL     1      -8.919  17.420  -4.231  1.00  0.00     0.100 C 
ATOM     10  C   UNL     1      -7.076  15.071  -1.944  1.00  0.00     0.105 C 
ENDBRANCH   3   4
ENDBRANCH   2   3
ENDBRANCH   1   2
BRANCH   1  11
ATOM     11  C   UNL     1     -11.513  15.675  -8.888  1.00  0.00     0.125 A 
ATOM     12  C   UNL     1     -11.396  14.631  -9.730  1.00  0.00     0.093 A 
ATOM     13  C   UNL     1     -12.529  16.508  -9.141  1.00  0.00     0.073 A 
ATOM     14  C   UNL     1     -12.214  14.380 -10.778  1.00  0.00     0.132 A 
ATOM     15  C   UNL     1     -13.362  16.304 -10.172  1.00  0.00     0.054 A 
ATOM     16  C   UNL     1     -13.237  15.245 -11.020  1.00  0.00     0.062 A 
ATOM     17  N   UNL     1     -14.278  17.172 -10.294  1.00  0.00    -0.346 N 
ATOM     18  C   UNL     1     -14.151  15.162 -12.029  1.00  0.00     0.236 C 
ATOM     19  C   UNL     1     -15.077  17.011 -11.252  1.00  0.00     0.193 C 
ATOM     20  N   UNL     1     -15.046  16.070 -12.092  1.00  0.00    -0.246 NA
ATOM     21  H   UNL     1     -14.359  17.932  -9.673  1.00  0.00     0.167 HD
BRANCH  14  22
ATOM     22  O   UNL     1     -11.983  13.282 -11.586  1.00  0.00    -0.490 OA
BRANCH  22  23
ATOM     23  C   UNL     1     -11.987  11.961 -11.100  1.00  0.00     0.178 C 
ATOM     24  C   UNL     1     -13.376  11.323 -11.083  1.00  0.00     0.073 C 
ATOM     25  C   UNL     1     -11.075  11.168 -12.050  1.00  0.00     0.073 C 
ATOM     26  C   UNL     1     -13.285   9.811 -10.904  1.00  0.00     0.164 C 
ATOM     27  C   UNL     1     -11.156   9.669 -11.779  1.00  0.00     0.164 C 
ATOM     28  O   UNL     1     -12.483   9.235 -11.906  1.00  0.00    -0.381 OA
ENDBRANCH  22  23
ENDBRANCH  14  22
BRANCH  18  29
ATOM     29  N   UNL     1     -14.350  14.329 -12.983  1.00  0.00    -0.355 N 
ATOM     30  H   UNL     1     -14.172  13.334 -12.683  1.00  0.00     0.163 HD
BRANCH  29  31
ATOM     31  C   UNL     1     -14.708  14.361 -14.211  1.00  0.00     0.102 A 
ATOM     32  C   UNL     1     -15.832  13.785 -14.696  1.00  0.00     0.190 A 
ATOM     33  C   UNL     1     -13.935  15.009 -15.129  1.00  0.00     0.068 A 
ATOM     34  O   UNL     1     -16.686  13.152 -14.072  1.00  0.00    -0.451 OA
ATOM     35  C   UNL     1     -16.165  13.831 -15.992  1.00  0.00     0.168 A 
ATOM     36  C   UNL     1     -14.277  15.048 -16.431  1.00  0.00     0.027 A 
ATOM     37  C   UNL     1     -17.728  12.781 -14.973  1.00  0.00     0.468 C 
ATOM     38  O   UNL     1     -17.223  13.245 -16.219  1.00  0.00    -0.454 OA
ATOM     39  C   UNL     1     -15.396  14.464 -16.882  1.00  0.00     0.052 A 
ATOM     40  Cl  UNL     1     -12.443  15.820 -14.744  1.00  0.00    -0.082 Cl
ENDBRANCH  29  31
ENDBRANCH  18  29
ENDBRANCH   1  11
TORSDOF 8
ENDMDL
MODEL 9
REMARK VINA RESULT:    -8.536      2.533      3.932
REMARK INTER + INTRA:         -14.327
REMARK INTER:                 -12.147
REMARK INTRA:                  -2.180
REMARK UNBOUND:                -1.798
REMARK SMILES CN1CCN(CCOc2cc3c(c(OC4CCOCC4)c2)C(Nc2c(Cl)ccc4c2OCO4)N=CN3)CC1
REMARK SMILES IDX 8 1 7 2 6 3 5 4 2 5 3 6 38 7 4 8 37 9 1 10 9 11 21 12 10 13
REMARK SMILES IDX 13 14 11 15 12 16 36 17 22 18 35 19 34 20 14 22 15 23 16 24
REMARK SMILES IDX 20 25 17 26 19 27 18 28 23 29 24 31 30 32 25 33 31 34 29 35
REMARK SMILES IDX 27 36 32 37 33 38 28 39 26 40
REMARK H PARENT 36 21 23 30
ROOT
ATOM      1  O   UNL     1     -10.146  12.701  -6.555  1.00  0.00    -0.492 OA
ENDROOT
BRANCH   1   2
ATOM      2  C   UNL     1      -8.826  13.128  -6.323  1.00  0.00     0.245 C 
BRANCH   2   3
ATOM      3  C   UNL     1      -7.834  11.955  -6.247  1.00  0.00     0.126 C 
BRANCH   3   4
ATOM      4  N   UNL     1      -7.713  11.132  -7.445  1.00  0.00    -0.297 NA
ATOM      5  N   UNL     1      -6.870   8.652  -8.742  1.00  0.00    -0.304 NA
ATOM      6  C   UNL     1      -6.097   9.875  -8.862  1.00  0.00     0.099 C 
ATOM      7  C   UNL     1      -8.271   8.979  -8.548  1.00  0.00     0.099 C 
ATOM      8  C   UNL     1      -6.306  10.802  -7.655  1.00  0.00     0.100 C 
ATOM      9  C   UNL     1      -8.458   9.889  -7.318  1.00  0.00     0.100 C 
ATOM     10  C   UNL     1      -6.695   7.830  -9.927  1.00  0.00     0.105 C 
ENDBRANCH   3   4
ENDBRANCH   2   3
ENDBRANCH   1   2
BRANCH   1  11
ATOM     11  C   UNL     1     -10.713  13.122  -7.734  1.00  0.00     0.125 A 
ATOM     12  C   UNL     1     -10.823  12.307  -8.799  1.00  0.00     0.093 A 
ATOM     13  C   UNL     1     -11.202  14.356  -7.899  1.00  0.00     0.073 A 
ATOM     14  C   UNL     1     -11.381  12.645  -9.984  1.00  0.00     0.132 A 
ATOM     15  C   UNL     1     -11.758  14.740  -9.057  1.00  0.00     0.054 A 
ATOM     16  C   UNL     1     -11.866  13.909 -10.131  1.00  0.00     0.062 A 
ATOM     17  N   UNL     1     -12.177  15.936  -9.074  1.00  0.00    -0.346 N 
ATOM     18  C   UNL     1     -12.449  14.431 -11.249  1.00  0.00     0.236 C 
ATOM     19  C   UNL     1     -12.704  16.329 -10.147  1.00  0.00     0.193 C 
ATOM     20  N   UNL     1     -12.849  15.643 -11.196  1.00  0.00    -0.246 NA
ATOM     21  H   UNL     1     -12.095  16.527  -8.290  1.00  0.00     0.167 HD
BRANCH  14  22
ATOM     22  O   UNL     1     -11.422  11.725 -11.015  1.00  0.00    -0.490 OA
BRANCH  22  23
ATOM     23  C   UNL     1     -10.873  10.434 -10.909  1.00  0.00     0.178 C 
ATOM     24  C   UNL     1     -11.917   9.319 -10.977  1.00  0.00     0.073 C 
ATOM     25  C   UNL     1      -9.906  10.296 -12.097  1.00  0.00     0.073 C 
ATOM     26  C   UNL     1     -11.261   7.965 -11.223  1.00  0.00     0.164 C 
ATOM     27  C   UNL     1      -9.398   8.865 -12.240  1.00  0.00     0.164 C 
ATOM     28  O   UNL     1     -10.483   7.991 -12.395  1.00  0.00    -0.381 OA
ENDBRANCH  22  23
ENDBRANCH  14  22
BRANCH  18  29
ATOM     29  N   UNL     1     -12.724  13.964 -12.410  1.00  0.00    -0.355 N 
ATOM     30  H   UNL     1     -11.884  13.523 -12.869  1.00  0.00     0.163 HD
BRANCH  29  31
ATOM     31  C   UNL     1     -13.742  13.879 -13.182  1.00  0.00     0.102 A 
ATOM     32  C   UNL     1     -13.964  14.684 -14.246  1.00  0.00     0.190 A 
ATOM     33  C   UNL     1     -14.692  12.928 -12.953  1.00  0.00     0.068 A 
ATOM     34  O   UNL     1     -13.257  15.606 -14.656  1.00  0.00    -0.451 OA
ATOM     35  C   UNL     1     -15.049  14.570 -15.023  1.00  0.00     0.168 A 
ATOM     36  C   UNL     1     -15.782  12.822 -13.739  1.00  0.00     0.027 A 
ATOM     37  C   UNL     1     -13.845  16.140 -15.841  1.00  0.00     0.468 C 
ATOM     38  O   UNL     1     -15.055  15.398 -15.932  1.00  0.00    -0.454 OA
ATOM     39  C   UNL     1     -15.976  13.638 -14.784  1.00  0.00     0.052 A 
ATOM     40  Cl  UNL     1     -14.626  11.783 -11.644  1.00  0.00    -0.082 Cl
ENDBRANCH  29  31
ENDBRANCH  18  29
ENDBRANCH   1  11
TORSDOF 8
ENDMDL
