MODEL 1
REMARK VINA RESULT:   -13.421      0.000      0.000
REMARK INTER + INTRA:         -16.349
REMARK INTER:                 -16.167
REMARK INTRA:                  -0.182
REMARK UNBOUND:                -0.182
REMARK SMILES CC1(C)CCC(C)(C)c2cc(NC(=O)c3ccc(C(=O)O)cc3)ccc21
REMARK SMILES IDX 15 1 16 2 23 3 17 4 22 5 18 6 13 7 14 8 12 9 11 11 10 12
REMARK SMILES IDX 24 13 9 14 25 15 6 16 26 17 5 18 2 19 4 20 7 21 8 22 1 23
REMARK SMILES IDX 3 24 19 25 20 26 21 27
REMARK H PARENT 12 10 21 28
ROOT
ATOM      1  C   UNL     1      40.693  23.136 101.985  1.00  0.00     0.040 A 
ATOM      2  C   UNL     1      39.802  22.543 102.855  1.00  0.00     0.015 A 
ATOM      3  C   UNL     1      40.595  24.464 101.621  1.00  0.00     0.015 A 
ATOM      4  C   UNL     1      38.766  23.312 103.385  1.00  0.00     0.016 A 
ATOM      5  C   UNL     1      39.560  25.232 102.152  1.00  0.00     0.016 A 
ATOM      6  C   UNL     1      38.645  24.656 103.034  1.00  0.00     0.059 A 
ENDROOT
BRANCH   1   7
ATOM      7  C   UNL     1      41.796  22.317 101.420  1.00  0.00     0.255 C 
ATOM      8  O   UNL     1      41.696  21.096 101.493  1.00  0.00    -0.269 OA
ATOM      9  N   UNL     1      42.841  23.041 100.831  1.00  0.00    -0.322 N 
ATOM     10  H   UNL     1      42.812  24.055 100.882  1.00  0.00     0.170 HD
BRANCH   9  11
ATOM     11  C   UNL     1      43.985  22.543 100.205  1.00  0.00     0.041 A 
ATOM     12  C   UNL     1      43.928  21.347  99.493  1.00  0.00     0.030 A 
ATOM     13  C   UNL     1      45.181  23.235 100.291  1.00  0.00     0.026 A 
ATOM     14  C   UNL     1      45.067  20.808  98.852  1.00  0.00    -0.037 A 
ATOM     15  C   UNL     1      46.314  22.736  99.652  1.00  0.00     0.007 A 
ATOM     16  C   UNL     1      44.936  19.483  98.089  1.00  0.00    -0.010 C 
ATOM     17  C   UNL     1      46.281  21.536  98.906  1.00  0.00    -0.038 A 
ATOM     18  C   UNL     1      46.318  18.884  97.749  1.00  0.00     0.012 C 
ATOM     19  C   UNL     1      47.564  21.046  98.223  1.00  0.00    -0.010 C 
ATOM     20  C   UNL     1      47.272  19.930  97.197  1.00  0.00     0.012 C 
ATOM     21  C   UNL     1      44.138  19.736  96.790  1.00  0.00     0.016 C 
ATOM     22  C   UNL     1      44.188  18.412  98.919  1.00  0.00     0.016 C 
ATOM     23  C   UNL     1      48.534  20.523  99.306  1.00  0.00     0.016 C 
ATOM     24  C   UNL     1      48.272  22.180  97.444  1.00  0.00     0.016 C 
ENDBRANCH   9  11
ENDBRANCH   1   7
BRANCH   6  25
ATOM     25  C   UNL     1      37.565  25.459 103.588  1.00  0.00     0.335 C 
ATOM     26  O   UNL     1      36.499  25.017 104.029  1.00  0.00    -0.246 OA
BRANCH  25  27
ATOM     27  O   UNL     1      37.848  26.790 103.576  1.00  0.00    -0.478 OA
ATOM     28  H   UNL     1      38.560  27.007 102.936  1.00  0.00     0.297 HD
ENDBRANCH  25  27
ENDBRANCH   6  25
TORSDOF 4
ENDMDL
MODEL 2
REMARK VINA RESULT:   -12.458      1.262      2.934
REMARK INTER + INTRA:         -15.188
REMARK INTER:                 -15.087
REMARK INTRA:                  -0.101
REMARK UNBOUND:                -0.182
REMARK SMILES CC1(C)CCC(C)(C)c2cc(NC(=O)c3ccc(C(=O)O)cc3)ccc21
REMARK SMILES IDX 15 1 16 2 23 3 17 4 22 5 18 6 13 7 14 8 12 9 11 11 10 12
REMARK SMILES IDX 24 13 9 14 25 15 6 16 26 17 5 18 2 19 4 20 7 21 8 22 1 23
REMARK SMILES IDX 3 24 19 25 20 26 21 27
REMARK H PARENT 12 10 21 28
ROOT
ATOM      1  C   UNL     1      40.903  23.453 101.871  1.00  0.00     0.040 A 
ATOM      2  C   UNL     1      40.641  24.758 101.511  1.00  0.00     0.015 A 
ATOM      3  C   UNL     1      40.101  22.755 102.750  1.00  0.00     0.015 A 
ATOM      4  C   UNL     1      39.527  25.395 102.055  1.00  0.00     0.016 A 
ATOM      5  C   UNL     1      38.986  23.393 103.294  1.00  0.00     0.016 A 
ATOM      6  C   UNL     1      38.699  24.713 102.947  1.00  0.00     0.059 A 
ENDROOT
BRANCH   1   7
ATOM      7  C   UNL     1      42.092  22.774 101.291  1.00  0.00     0.255 C 
ATOM      8  O   UNL     1      43.183  23.317 101.427  1.00  0.00    -0.269 OA
ATOM      9  N   UNL     1      41.835  21.550 100.659  1.00  0.00    -0.322 N 
ATOM     10  H   UNL     1      40.870  21.242 100.582  1.00  0.00     0.170 HD
BRANCH   9  11
ATOM     11  C   UNL     1      42.750  20.688 100.053  1.00  0.00     0.041 A 
ATOM     12  C   UNL     1      43.930  21.190  99.509  1.00  0.00     0.030 A 
ATOM     13  C   UNL     1      42.486  19.330  99.985  1.00  0.00     0.026 A 
ATOM     14  C   UNL     1      44.877  20.349  98.881  1.00  0.00    -0.037 A 
ATOM     15  C   UNL     1      43.412  18.476  99.389  1.00  0.00     0.007 A 
ATOM     16  C   UNL     1      46.154  20.969  98.298  1.00  0.00    -0.010 C 
ATOM     17  C   UNL     1      44.627  18.955  98.848  1.00  0.00    -0.038 A 
ATOM     18  C   UNL     1      46.895  19.980  97.372  1.00  0.00     0.012 C 
ATOM     19  C   UNL     1      45.604  17.960  98.210  1.00  0.00    -0.010 C 
ATOM     20  C   UNL     1      46.994  18.593  97.982  1.00  0.00     0.012 C 
ATOM     21  C   UNL     1      47.077  21.390  99.464  1.00  0.00     0.016 C 
ATOM     22  C   UNL     1      45.848  22.223  97.444  1.00  0.00     0.016 C 
ATOM     23  C   UNL     1      45.017  17.483  96.863  1.00  0.00     0.016 C 
ATOM     24  C   UNL     1      45.831  16.719  99.107  1.00  0.00     0.016 C 
ENDBRANCH   9  11
ENDBRANCH   1   7
BRANCH   6  25
ATOM     25  C   UNL     1      37.536  25.376 103.514  1.00  0.00     0.335 C 
ATOM     26  O   UNL     1      36.531  24.807 103.954  1.00  0.00    -0.246 OA
BRANCH  25  27
ATOM     27  O   UNL     1      37.659  26.732 103.517  1.00  0.00    -0.478 OA
ATOM     28  H   UNL     1      37.617  27.104 102.610  1.00  0.00     0.297 HD
ENDBRANCH  25  27
ENDBRANCH   6  25
TORSDOF 4
ENDMDL
