MODEL 1
REMARK VINA RESULT:    -9.165      0.000      0.000
REMARK INTER + INTRA:         -11.033
REMARK INTER:                 -10.772
REMARK INTRA:                  -0.261
REMARK UNBOUND:                -0.261
REMARK SMILES CN1C(N)=N[C@](C)(c2cc(NC(=O)c3ccc(F)cn3)ccc2F)CS1(=O)=O
REMARK SMILES IDX 8 1 9 2 10 3 21 4 22 5 23 6 24 7 6 8 25 9 5 10 26 11 3 12
REMARK SMILES IDX 27 13 2 14 28 15 4 16 7 17 1 18 11 21 12 22 13 23 14 25
REMARK SMILES IDX 20 26 15 27 19 28 16 29 17 30 18 31
REMARK H PARENT 4 19 4 20 11 24
ROOT
ATOM      1  C   UNL     1      24.733  12.496  21.041  1.00  0.00     0.018 A 
ATOM      2  C   UNL     1      24.033  12.249  22.221  1.00  0.00     0.035 A 
ATOM      3  C   UNL     1      23.405  11.049  22.468  1.00  0.00     0.042 A 
ATOM      4  C   UNL     1      23.431  10.034  21.520  1.00  0.00     0.029 A 
ATOM      5  C   UNL     1      24.124  10.260  20.344  1.00  0.00     0.042 A 
ATOM      6  C   UNL     1      24.776  11.457  20.124  1.00  0.00     0.129 A 
ATOM      7  F   UNL     1      25.474  11.643  18.974  1.00  0.00    -0.207 F 
ENDROOT
BRANCH   1   8
ATOM      8  C   UNL     1      25.419  13.831  20.800  1.00  0.00     0.105 C 
ATOM      9  C   UNL     1      26.904  13.748  20.525  1.00  0.00     0.195 C 
ATOM     10  N   UNL     1      25.160  14.784  21.878  1.00  0.00    -0.240 NA
ATOM     11  S   UNL     1      27.768  13.105  21.936  1.00  0.00     0.239 S 
ATOM     12  C   UNL     1      25.835  14.759  22.986  1.00  0.00     0.205 C 
ATOM     13  O   UNL     1      29.112  13.651  21.883  1.00  0.00    -0.206 OA
ATOM     14  N   UNL     1      26.941  13.910  23.214  1.00  0.00    -0.243 N 
ATOM     15  O   UNL     1      27.469  11.723  22.152  1.00  0.00    -0.206 OA
ATOM     16  N   UNL     1      25.545  15.587  24.037  1.00  0.00    -0.369 N 
ATOM     17  C   UNL     1      24.775  14.505  19.585  1.00  0.00     0.044 C 
ATOM     18  C   UNL     1      27.619  13.805  24.521  1.00  0.00     0.167 C 
ATOM     19  H   UNL     1      24.791  16.216  23.974  1.00  0.00     0.159 HD
ATOM     20  H   UNL     1      26.090  15.553  24.856  1.00  0.00     0.159 HD
ENDBRANCH   1   8
BRANCH   3  21
ATOM     21  N   UNL     1      22.734  10.932  23.692  1.00  0.00    -0.321 N 
ATOM     22  C   UNL     1      23.218  11.186  24.963  1.00  0.00     0.274 C 
ATOM     23  O   UNL     1      24.384  11.441  25.234  1.00  0.00    -0.267 OA
ATOM     24  H   UNL     1      21.798  10.630  23.641  1.00  0.00     0.170 HD
BRANCH  22  25
ATOM     25  C   UNL     1      22.201  11.173  26.042  1.00  0.00     0.128 A 
ATOM     26  N   UNL     1      22.612  11.578  27.249  1.00  0.00    -0.248 NA
ATOM     27  C   UNL     1      20.907  10.767  25.768  1.00  0.00     0.037 A 
ATOM     28  C   UNL     1      21.709  11.571  28.244  1.00  0.00     0.151 A 
ATOM     29  C   UNL     1      19.999  10.776  26.812  1.00  0.00     0.043 A 
ATOM     30  C   UNL     1      20.402  11.178  28.070  1.00  0.00     0.141 A 
ATOM     31  F   UNL     1      19.553  11.213  29.112  1.00  0.00    -0.205 F 
ENDBRANCH  22  25
ENDBRANCH   3  21
TORSDOF 3
ENDMDL
MODEL 2
REMARK VINA RESULT:    -8.707      1.345      1.389
REMARK INTER + INTRA:         -10.494
REMARK INTER:                 -10.163
REMARK INTRA:                  -0.331
REMARK UNBOUND:                -0.261
REMARK SMILES CN1C(N)=N[C@](C)(c2cc(NC(=O)c3ccc(F)cn3)ccc2F)CS1(=O)=O
REMARK SMILES IDX 8 1 9 2 10 3 21 4 22 5 23 6 24 7 6 8 25 9 5 10 26 11 3 12
REMARK SMILES IDX 27 13 2 14 28 15 4 16 7 17 1 18 11 21 12 22 13 23 14 25
REMARK SMILES IDX 20 26 15 27 19 28 16 29 17 30 18 31
REMARK H PARENT 4 19 4 20 11 24
ROOT
ATOM      1  C   UNL     1      24.760  12.381  21.300  1.00  0.00     0.018 A 
ATOM      2  C   UNL     1      24.289  12.472  22.609  1.00  0.00     0.035 A 
ATOM      3  C   UNL     1      23.446  11.532  23.155  1.00  0.00     0.042 A 
ATOM      4  C   UNL     1      23.012  10.451  22.398  1.00  0.00     0.029 A 
ATOM      5  C   UNL     1      23.473  10.342  21.097  1.00  0.00     0.042 A 
ATOM      6  C   UNL     1      24.344  11.276  20.573  1.00  0.00     0.129 A 
ATOM      7  F   UNL     1      24.804  11.130  19.304  1.00  0.00    -0.207 F 
ENDROOT
BRANCH   1   8
ATOM      8  C   UNL     1      25.694  13.435  20.726  1.00  0.00     0.105 C 
ATOM      9  C   UNL     1      26.997  12.904  20.171  1.00  0.00     0.195 C 
ATOM     10  N   UNL     1      25.956  14.513  21.678  1.00  0.00    -0.240 NA
ATOM     11  S   UNL     1      27.971  12.166  21.459  1.00  0.00     0.239 S 
ATOM     12  C   UNL     1      26.843  14.393  22.616  1.00  0.00     0.205 C 
ATOM     13  O   UNL     1      29.359  12.294  21.052  1.00  0.00    -0.206 OA
ATOM     14  N   UNL     1      27.710  13.285  22.741  1.00  0.00    -0.243 N 
ATOM     15  O   UNL     1      27.383  10.954  21.937  1.00  0.00    -0.206 OA
ATOM     16  N   UNL     1      27.036  15.359  23.568  1.00  0.00    -0.369 N 
ATOM     17  C   UNL     1      24.979  14.156  19.579  1.00  0.00     0.044 C 
ATOM     18  C   UNL     1      28.627  13.104  23.884  1.00  0.00     0.167 C 
ATOM     19  H   UNL     1      26.480  16.171  23.564  1.00  0.00     0.159 HD
ATOM     20  H   UNL     1      27.732  15.241  24.255  1.00  0.00     0.159 HD
ENDBRANCH   1   8
BRANCH   3  21
ATOM     21  N   UNL     1      23.044  11.744  24.481  1.00  0.00    -0.321 N 
ATOM     22  C   UNL     1      22.116  12.651  24.960  1.00  0.00     0.274 C 
ATOM     23  O   UNL     1      21.576  13.525  24.294  1.00  0.00    -0.267 OA
ATOM     24  H   UNL     1      23.477  11.174  25.157  1.00  0.00     0.170 HD
BRANCH  22  25
ATOM     25  C   UNL     1      21.752  12.490  26.389  1.00  0.00     0.128 A 
ATOM     26  N   UNL     1      22.767  12.455  27.258  1.00  0.00    -0.248 NA
ATOM     27  C   UNL     1      20.421  12.395  26.757  1.00  0.00     0.037 A 
ATOM     28  C   UNL     1      22.463  12.306  28.558  1.00  0.00     0.151 A 
ATOM     29  C   UNL     1      20.140  12.248  28.104  1.00  0.00     0.043 A 
ATOM     30  C   UNL     1      21.172  12.197  29.021  1.00  0.00     0.141 A 
ATOM     31  F   UNL     1      20.946  12.065  30.339  1.00  0.00    -0.205 F 
ENDBRANCH  22  25
ENDBRANCH   3  21
TORSDOF 3
ENDMDL
MODEL 3
REMARK VINA RESULT:    -8.548      2.398      3.790
REMARK INTER + INTRA:         -10.308
REMARK INTER:                 -10.031
REMARK INTRA:                  -0.277
REMARK UNBOUND:                -0.261
REMARK SMILES CN1C(N)=N[C@](C)(c2cc(NC(=O)c3ccc(F)cn3)ccc2F)CS1(=O)=O
REMARK SMILES IDX 8 1 9 2 10 3 21 4 22 5 23 6 24 7 6 8 25 9 5 10 26 11 3 12
REMARK SMILES IDX 27 13 2 14 28 15 4 16 7 17 1 18 11 21 12 22 13 23 14 25
REMARK SMILES IDX 20 26 15 27 19 28 16 29 17 30 18 31
REMARK H PARENT 4 19 4 20 11 24
ROOT
ATOM      1  C   UNL     1      26.912  13.058  22.942  1.00  0.00     0.018 A 
ATOM      2  C   UNL     1      25.836  12.682  23.745  1.00  0.00     0.035 A 
ATOM      3  C   UNL     1      25.643  13.198  25.006  1.00  0.00     0.042 A 
ATOM      4  C   UNL     1      26.545  14.111  25.539  1.00  0.00     0.029 A 
ATOM      5  C   UNL     1      27.617  14.498  24.754  1.00  0.00     0.042 A 
ATOM      6  C   UNL     1      27.780  13.996  23.478  1.00  0.00     0.129 A 
ATOM      7  F   UNL     1      28.824  14.415  22.718  1.00  0.00    -0.207 F 
ENDROOT
BRANCH   1   8
ATOM      8  C   UNL     1      27.096  12.472  21.551  1.00  0.00     0.105 C 
ATOM      9  C   UNL     1      27.166  13.488  20.432  1.00  0.00     0.195 C 
ATOM     10  N   UNL     1      26.088  11.458  21.245  1.00  0.00    -0.240 NA
ATOM     11  S   UNL     1      25.635  14.375  20.293  1.00  0.00     0.239 S 
ATOM     12  C   UNL     1      24.900  11.779  20.836  1.00  0.00     0.205 C 
ATOM     13  O   UNL     1      25.523  14.792  18.907  1.00  0.00    -0.206 OA
ATOM     14  N   UNL     1      24.503  13.102  20.536  1.00  0.00    -0.243 N 
ATOM     15  O   UNL     1      25.423  15.240  21.412  1.00  0.00    -0.206 OA
ATOM     16  N   UNL     1      23.920  10.845  20.630  1.00  0.00    -0.369 N 
ATOM     17  C   UNL     1      28.404  11.677  21.518  1.00  0.00     0.044 C 
ATOM     18  C   UNL     1      23.114  13.466  20.192  1.00  0.00     0.167 C 
ATOM     19  H   UNL     1      24.101   9.894  20.811  1.00  0.00     0.159 HD
ATOM     20  H   UNL     1      23.035  11.124  20.302  1.00  0.00     0.159 HD
ENDBRANCH   1   8
BRANCH   3  21
ATOM     21  N   UNL     1      24.523  12.734  25.709  1.00  0.00    -0.321 N 
ATOM     22  C   UNL     1      23.192  12.792  25.336  1.00  0.00     0.274 C 
ATOM     23  O   UNL     1      22.760  13.390  24.359  1.00  0.00    -0.267 OA
ATOM     24  H   UNL     1      24.707  12.313  26.580  1.00  0.00     0.170 HD
BRANCH  22  25
ATOM     25  C   UNL     1      22.259  12.026  26.197  1.00  0.00     0.128 A 
ATOM     26  N   UNL     1      22.614  11.885  27.479  1.00  0.00    -0.248 NA
ATOM     27  C   UNL     1      21.090  11.511  25.663  1.00  0.00     0.037 A 
ATOM     28  C   UNL     1      21.787  11.192  28.277  1.00  0.00     0.151 A 
ATOM     29  C   UNL     1      20.255  10.806  26.513  1.00  0.00     0.043 A 
ATOM     30  C   UNL     1      20.606  10.637  27.838  1.00  0.00     0.141 A 
ATOM     31  F   UNL     1      19.823   9.969  28.702  1.00  0.00    -0.205 F 
ENDBRANCH  22  25
ENDBRANCH   3  21
TORSDOF 3
ENDMDL
MODEL 4
REMARK VINA RESULT:    -8.361      3.628      7.236
REMARK INTER + INTRA:         -10.088
REMARK INTER:                 -10.392
REMARK INTRA:                   0.303
REMARK UNBOUND:                -0.261
REMARK SMILES CN1C(N)=N[C@](C)(c2cc(NC(=O)c3ccc(F)cn3)ccc2F)CS1(=O)=O
REMARK SMILES IDX 8 1 9 2 10 3 21 4 22 5 23 6 24 7 6 8 25 9 5 10 26 11 3 12
REMARK SMILES IDX 27 13 2 14 28 15 4 16 7 17 1 18 11 21 12 22 13 23 14 25
REMARK SMILES IDX 20 26 15 27 19 28 16 29 17 30 18 31
REMARK H PARENT 4 19 4 20 11 24
ROOT
ATOM      1  C   UNL     1      26.197  12.474  21.119  1.00  0.00     0.018 A 
ATOM      2  C   UNL     1      27.046  13.349  21.797  1.00  0.00     0.035 A 
ATOM      3  C   UNL     1      28.383  13.080  21.984  1.00  0.00     0.042 A 
ATOM      4  C   UNL     1      28.935  11.895  21.515  1.00  0.00     0.029 A 
ATOM      5  C   UNL     1      28.108  11.016  20.837  1.00  0.00     0.042 A 
ATOM      6  C   UNL     1      26.776  11.313  20.628  1.00  0.00     0.129 A 
ATOM      7  F   UNL     1      25.994  10.447  19.935  1.00  0.00    -0.207 F 
ENDROOT
BRANCH   1   8
ATOM      8  C   UNL     1      24.725  12.800  20.925  1.00  0.00     0.105 C 
ATOM      9  C   UNL     1      24.128  13.714  21.972  1.00  0.00     0.195 C 
ATOM     10  N   UNL     1      23.909  11.595  20.787  1.00  0.00    -0.240 NA
ATOM     11  S   UNL     1      24.159  12.942  23.570  1.00  0.00     0.239 S 
ATOM     12  C   UNL     1      23.513  10.918  21.821  1.00  0.00     0.205 C 
ATOM     13  O   UNL     1      23.054  13.508  24.324  1.00  0.00    -0.206 OA
ATOM     14  N   UNL     1      23.720  11.330  23.156  1.00  0.00    -0.243 N 
ATOM     15  O   UNL     1      25.492  12.817  24.069  1.00  0.00    -0.206 OA
ATOM     16  N   UNL     1      22.824   9.741  21.703  1.00  0.00    -0.369 N 
ATOM     17  C   UNL     1      24.546  13.492  19.571  1.00  0.00     0.044 C 
ATOM     18  C   UNL     1      23.374  10.490  24.320  1.00  0.00     0.167 C 
ATOM     19  H   UNL     1      22.630   9.371  20.812  1.00  0.00     0.159 HD
ATOM     20  H   UNL     1      22.523   9.263  22.510  1.00  0.00     0.159 HD
ENDBRANCH   1   8
BRANCH   3  21
ATOM     21  N   UNL     1      29.123  14.042  22.684  1.00  0.00    -0.321 N 
ATOM     22  C   UNL     1      29.372  14.110  24.043  1.00  0.00     0.274 C 
ATOM     23  O   UNL     1      28.861  13.388  24.890  1.00  0.00    -0.267 OA
ATOM     24  H   UNL     1      29.518  14.760  22.139  1.00  0.00     0.170 HD
BRANCH  22  25
ATOM     25  C   UNL     1      30.367  15.129  24.455  1.00  0.00     0.128 A 
ATOM     26  N   UNL     1      31.636  14.894  24.106  1.00  0.00    -0.248 NA
ATOM     27  C   UNL     1      29.958  16.253  25.151  1.00  0.00     0.037 A 
ATOM     28  C   UNL     1      32.557  15.801  24.471  1.00  0.00     0.151 A 
ATOM     29  C   UNL     1      30.929  17.173  25.508  1.00  0.00     0.043 A 
ATOM     30  C   UNL     1      32.249  16.946  25.170  1.00  0.00     0.141 A 
ATOM     31  F   UNL     1      33.224  17.815  25.487  1.00  0.00    -0.205 F 
ENDBRANCH  22  25
ENDBRANCH   3  21
TORSDOF 3
ENDMDL
MODEL 5
REMARK VINA RESULT:    -8.315      3.583      8.534
REMARK INTER + INTRA:         -10.034
REMARK INTER:                 -10.402
REMARK INTRA:                   0.368
REMARK UNBOUND:                -0.261
REMARK SMILES CN1C(N)=N[C@](C)(c2cc(NC(=O)c3ccc(F)cn3)ccc2F)CS1(=O)=O
REMARK SMILES IDX 8 1 9 2 10 3 21 4 22 5 23 6 24 7 6 8 25 9 5 10 26 11 3 12
REMARK SMILES IDX 27 13 2 14 28 15 4 16 7 17 1 18 11 21 12 22 13 23 14 25
REMARK SMILES IDX 20 26 15 27 19 28 16 29 17 30 18 31
REMARK H PARENT 4 19 4 20 11 24
ROOT
ATOM      1  C   UNL     1      20.966  12.091  27.399  1.00  0.00     0.018 A 
ATOM      2  C   UNL     1      21.594  12.012  26.157  1.00  0.00     0.035 A 
ATOM      3  C   UNL     1      22.758  12.690  25.875  1.00  0.00     0.042 A 
ATOM      4  C   UNL     1      23.343  13.509  26.833  1.00  0.00     0.029 A 
ATOM      5  C   UNL     1      22.736  13.597  28.073  1.00  0.00     0.042 A 
ATOM      6  C   UNL     1      21.585  12.886  28.351  1.00  0.00     0.129 A 
ATOM      7  F   UNL     1      21.025  12.967  29.585  1.00  0.00    -0.207 F 
ENDROOT
BRANCH   1   8
ATOM      8  C   UNL     1      19.681  11.327  27.680  1.00  0.00     0.105 C 
ATOM      9  C   UNL     1      18.897  10.918  26.452  1.00  0.00     0.195 C 
ATOM     10  N   UNL     1      18.813  12.038  28.616  1.00  0.00    -0.240 NA
ATOM     11  S   UNL     1      18.326  12.347  25.568  1.00  0.00     0.239 S 
ATOM     12  C   UNL     1      18.031  12.997  28.226  1.00  0.00     0.205 C 
ATOM     13  O   UNL     1      17.116  11.948  24.873  1.00  0.00    -0.206 OA
ATOM     14  N   UNL     1      17.852  13.364  26.874  1.00  0.00    -0.243 N 
ATOM     15  O   UNL     1      19.407  13.057  24.958  1.00  0.00    -0.206 OA
ATOM     16  N   UNL     1      17.279  13.730  29.105  1.00  0.00    -0.369 N 
ATOM     17  C   UNL     1      20.027  10.043  28.440  1.00  0.00     0.044 C 
ATOM     18  C   UNL     1      17.056  14.535  26.457  1.00  0.00     0.167 C 
ATOM     19  H   UNL     1      17.335  13.548  30.071  1.00  0.00     0.159 HD
ATOM     20  H   UNL     1      16.682  14.438  28.771  1.00  0.00     0.159 HD
ENDBRANCH   1   8
BRANCH   3  21
ATOM     21  N   UNL     1      23.285  12.526  24.588  1.00  0.00    -0.321 N 
ATOM     22  C   UNL     1      23.118  13.342  23.483  1.00  0.00     0.274 C 
ATOM     23  O   UNL     1      22.355  14.298  23.422  1.00  0.00    -0.267 OA
ATOM     24  H   UNL     1      23.846  11.728  24.452  1.00  0.00     0.170 HD
BRANCH  22  25
ATOM     25  C   UNL     1      23.975  13.014  22.318  1.00  0.00     0.128 A 
ATOM     26  N   UNL     1      25.234  12.657  22.591  1.00  0.00    -0.248 NA
ATOM     27  C   UNL     1      23.455  13.079  21.037  1.00  0.00     0.037 A 
ATOM     28  C   UNL     1      26.031  12.360  21.551  1.00  0.00     0.151 A 
ATOM     29  C   UNL     1      24.299  12.761  19.988  1.00  0.00     0.043 A 
ATOM     30  C   UNL     1      25.608  12.400  20.242  1.00  0.00     0.141 A 
ATOM     31  F   UNL     1      26.461  12.074  19.257  1.00  0.00    -0.205 F 
ENDBRANCH  22  25
ENDBRANCH   3  21
TORSDOF 3
ENDMDL
MODEL 6
REMARK VINA RESULT:    -8.222      2.607      3.944
REMARK INTER + INTRA:          -9.925
REMARK INTER:                 -10.036
REMARK INTRA:                   0.112
REMARK UNBOUND:                -0.261
REMARK SMILES CN1C(N)=N[C@](C)(c2cc(NC(=O)c3ccc(F)cn3)ccc2F)CS1(=O)=O
REMARK SMILES IDX 8 1 9 2 10 3 21 4 22 5 23 6 24 7 6 8 25 9 5 10 26 11 3 12
REMARK SMILES IDX 27 13 2 14 28 15 4 16 7 17 1 18 11 21 12 22 13 23 14 25
REMARK SMILES IDX 20 26 15 27 19 28 16 29 17 30 18 31
REMARK H PARENT 4 19 4 20 11 24
ROOT
ATOM      1  C   UNL     1      26.760  13.063  23.081  1.00  0.00     0.018 A 
ATOM      2  C   UNL     1      25.577  12.662  23.700  1.00  0.00     0.035 A 
ATOM      3  C   UNL     1      25.239  13.063  24.972  1.00  0.00     0.042 A 
ATOM      4  C   UNL     1      26.094  13.880  25.702  1.00  0.00     0.029 A 
ATOM      5  C   UNL     1      27.271  14.291  25.102  1.00  0.00     0.042 A 
ATOM      6  C   UNL     1      27.582  13.906  23.813  1.00  0.00     0.129 A 
ATOM      7  F   UNL     1      28.729  14.346  23.236  1.00  0.00    -0.207 F 
ENDROOT
BRANCH   1   8
ATOM      8  C   UNL     1      27.103  12.604  21.672  1.00  0.00     0.105 C 
ATOM      9  C   UNL     1      27.192  13.708  20.642  1.00  0.00     0.195 C 
ATOM     10  N   UNL     1      26.204  11.551  21.203  1.00  0.00    -0.240 NA
ATOM     11  S   UNL     1      25.616  14.498  20.432  1.00  0.00     0.239 S 
ATOM     12  C   UNL     1      25.033  11.823  20.714  1.00  0.00     0.205 C 
ATOM     13  O   UNL     1      25.590  15.015  19.076  1.00  0.00    -0.206 OA
ATOM     14  N   UNL     1      24.565  13.135  20.478  1.00  0.00    -0.243 N 
ATOM     15  O   UNL     1      25.247  15.254  21.588  1.00  0.00    -0.206 OA
ATOM     16  N   UNL     1      24.147  10.844  20.353  1.00  0.00    -0.369 N 
ATOM     17  C   UNL     1      28.465  11.905  21.698  1.00  0.00     0.044 C 
ATOM     18  C   UNL     1      23.188  13.431  20.039  1.00  0.00     0.167 C 
ATOM     19  H   UNL     1      24.383   9.896  20.479  1.00  0.00     0.159 HD
ATOM     20  H   UNL     1      23.274  11.087  19.968  1.00  0.00     0.159 HD
ENDBRANCH   1   8
BRANCH   3  21
ATOM     21  N   UNL     1      24.023  12.586  25.479  1.00  0.00    -0.321 N 
ATOM     22  C   UNL     1      23.195  13.177  26.417  1.00  0.00     0.274 C 
ATOM     23  O   UNL     1      23.467  14.179  27.065  1.00  0.00    -0.267 OA
ATOM     24  H   UNL     1      23.719  11.721  25.122  1.00  0.00     0.170 HD
BRANCH  22  25
ATOM     25  C   UNL     1      21.872  12.529  26.591  1.00  0.00     0.128 A 
ATOM     26  N   UNL     1      20.933  12.849  25.695  1.00  0.00    -0.248 NA
ATOM     27  C   UNL     1      21.670  11.640  27.632  1.00  0.00     0.037 A 
ATOM     28  C   UNL     1      19.725  12.278  25.834  1.00  0.00     0.151 A 
ATOM     29  C   UNL     1      20.417  11.063  27.746  1.00  0.00     0.043 A 
ATOM     30  C   UNL     1      19.426  11.387  26.840  1.00  0.00     0.141 A 
ATOM     31  F   UNL     1      18.198  10.845  26.905  1.00  0.00    -0.205 F 
ENDBRANCH  22  25
ENDBRANCH   3  21
TORSDOF 3
ENDMDL
MODEL 7
REMARK VINA RESULT:    -8.127      2.608      3.118
REMARK INTER + INTRA:          -9.813
REMARK INTER:                 -10.110
REMARK INTRA:                   0.297
REMARK UNBOUND:                -0.261
REMARK SMILES CN1C(N)=N[C@](C)(c2cc(NC(=O)c3ccc(F)cn3)ccc2F)CS1(=O)=O
REMARK SMILES IDX 8 1 9 2 10 3 21 4 22 5 23 6 24 7 6 8 25 9 5 10 26 11 3 12
REMARK SMILES IDX 27 13 2 14 28 15 4 16 7 17 1 18 11 21 12 22 13 23 14 25
REMARK SMILES IDX 20 26 15 27 19 28 16 29 17 30 18 31
REMARK H PARENT 4 19 4 20 11 24
ROOT
ATOM      1  C   UNL     1      26.503  13.584  22.692  1.00  0.00     0.018 A 
ATOM      2  C   UNL     1      25.655  13.013  23.641  1.00  0.00     0.035 A 
ATOM      3  C   UNL     1      24.292  13.204  23.620  1.00  0.00     0.042 A 
ATOM      4  C   UNL     1      23.709  14.006  22.647  1.00  0.00     0.029 A 
ATOM      5  C   UNL     1      24.534  14.578  21.695  1.00  0.00     0.042 A 
ATOM      6  C   UNL     1      25.897  14.351  21.709  1.00  0.00     0.129 A 
ATOM      7  F   UNL     1      26.681  14.900  20.746  1.00  0.00    -0.207 F 
ENDROOT
BRANCH   1   8
ATOM      8  C   UNL     1      28.005  13.351  22.740  1.00  0.00     0.105 C 
ATOM      9  C   UNL     1      28.558  13.013  24.106  1.00  0.00     0.195 C 
ATOM     10  N   UNL     1      28.751  14.465  22.157  1.00  0.00    -0.240 NA
ATOM     11  S   UNL     1      28.328  14.370  25.228  1.00  0.00     0.239 S 
ATOM     12  C   UNL     1      29.005  15.543  22.833  1.00  0.00     0.205 C 
ATOM     13  O   UNL     1      29.390  14.276  26.214  1.00  0.00    -0.206 OA
ATOM     14  N   UNL     1      28.699  15.702  24.203  1.00  0.00    -0.243 N 
ATOM     15  O   UNL     1      26.948  14.560  25.550  1.00  0.00    -0.206 OA
ATOM     16  N   UNL     1      29.625  16.628  22.273  1.00  0.00    -0.369 N 
ATOM     17  C   UNL     1      28.354  12.183  21.813  1.00  0.00     0.044 C 
ATOM     18  C   UNL     1      28.880  16.976  24.925  1.00  0.00     0.167 C 
ATOM     19  H   UNL     1      29.878  16.613  21.322  1.00  0.00     0.159 HD
ATOM     20  H   UNL     1      29.818  17.422  22.821  1.00  0.00     0.159 HD
ENDBRANCH   1   8
BRANCH   3  21
ATOM     21  N   UNL     1      23.555  12.576  24.633  1.00  0.00    -0.321 N 
ATOM     22  C   UNL     1      23.286  13.038  25.909  1.00  0.00     0.274 C 
ATOM     23  O   UNL     1      23.772  14.043  26.412  1.00  0.00    -0.267 OA
ATOM     24  H   UNL     1      23.180  11.694  24.407  1.00  0.00     0.170 HD
BRANCH  22  25
ATOM     25  C   UNL     1      22.300  12.239  26.677  1.00  0.00     0.128 A 
ATOM     26  N   UNL     1      22.627  11.950  27.940  1.00  0.00    -0.248 NA
ATOM     27  C   UNL     1      21.114  11.847  26.080  1.00  0.00     0.037 A 
ATOM     28  C   UNL     1      21.751  11.224  28.654  1.00  0.00     0.151 A 
ATOM     29  C   UNL     1      20.230  11.105  26.843  1.00  0.00     0.043 A 
ATOM     30  C   UNL     1      20.549  10.782  28.147  1.00  0.00     0.141 A 
ATOM     31  F   UNL     1      19.718  10.072  28.929  1.00  0.00    -0.205 F 
ENDBRANCH  22  25
ENDBRANCH   3  21
TORSDOF 3
ENDMDL
MODEL 8
REMARK VINA RESULT:    -7.946      1.887      2.463
REMARK INTER + INTRA:          -9.601
REMARK INTER:                 -10.553
REMARK INTRA:                   0.953
REMARK UNBOUND:                -0.261
REMARK SMILES CN1C(N)=N[C@](C)(c2cc(NC(=O)c3ccc(F)cn3)ccc2F)CS1(=O)=O
REMARK SMILES IDX 8 1 9 2 10 3 21 4 22 5 23 6 24 7 6 8 25 9 5 10 26 11 3 12
REMARK SMILES IDX 27 13 2 14 28 15 4 16 7 17 1 18 11 21 12 22 13 23 14 25
REMARK SMILES IDX 20 26 15 27 19 28 16 29 17 30 18 31
REMARK H PARENT 4 19 4 20 11 24
ROOT
ATOM      1  C   UNL     1      25.601  11.574  21.354  1.00  0.00     0.018 A 
ATOM      2  C   UNL     1      25.073  11.711  22.636  1.00  0.00     0.035 A 
ATOM      3  C   UNL     1      23.814  11.262  22.966  1.00  0.00     0.042 A 
ATOM      4  C   UNL     1      23.006  10.666  22.006  1.00  0.00     0.029 A 
ATOM      5  C   UNL     1      23.516  10.519  20.728  1.00  0.00     0.042 A 
ATOM      6  C   UNL     1      24.792  10.945  20.420  1.00  0.00     0.129 A 
ATOM      7  F   UNL     1      25.280  10.762  19.166  1.00  0.00    -0.207 F 
ENDROOT
BRANCH   1   8
ATOM      8  C   UNL     1      26.997  12.078  21.021  1.00  0.00     0.105 C 
ATOM      9  C   UNL     1      27.692  12.824  22.138  1.00  0.00     0.195 C 
ATOM     10  N   UNL     1      27.015  12.876  19.797  1.00  0.00    -0.240 NA
ATOM     11  S   UNL     1      26.814  14.314  22.538  1.00  0.00     0.239 S 
ATOM     12  C   UNL     1      26.679  14.129  19.795  1.00  0.00     0.205 C 
ATOM     13  O   UNL     1      27.796  15.244  23.065  1.00  0.00    -0.206 OA
ATOM     14  N   UNL     1      26.383  14.865  20.965  1.00  0.00    -0.243 N 
ATOM     15  O   UNL     1      25.557  14.035  23.159  1.00  0.00    -0.206 OA
ATOM     16  N   UNL     1      26.607  14.865  18.643  1.00  0.00    -0.369 N 
ATOM     17  C   UNL     1      27.882  10.881  20.663  1.00  0.00     0.044 C 
ATOM     18  C   UNL     1      25.883  16.253  20.937  1.00  0.00     0.167 C 
ATOM     19  H   UNL     1      26.796  14.440  17.775  1.00  0.00     0.159 HD
ATOM     20  H   UNL     1      26.366  15.819  18.682  1.00  0.00     0.159 HD
ENDBRANCH   1   8
BRANCH   3  21
ATOM     21  N   UNL     1      23.402  11.464  24.290  1.00  0.00    -0.321 N 
ATOM     22  C   UNL     1      22.573  12.453  24.788  1.00  0.00     0.274 C 
ATOM     23  O   UNL     1      22.159  13.412  24.150  1.00  0.00    -0.267 OA
ATOM     24  H   UNL     1      23.747  10.820  24.950  1.00  0.00     0.170 HD
BRANCH  22  25
ATOM     25  C   UNL     1      22.154  12.277  26.199  1.00  0.00     0.128 A 
ATOM     26  N   UNL     1      22.428  13.287  27.031  1.00  0.00    -0.248 NA
ATOM     27  C   UNL     1      21.506  11.116  26.588  1.00  0.00     0.037 A 
ATOM     28  C   UNL     1      22.061  13.148  28.315  1.00  0.00     0.151 A 
ATOM     29  C   UNL     1      21.135  11.005  27.916  1.00  0.00     0.043 A 
ATOM     30  C   UNL     1      21.419  12.030  28.798  1.00  0.00     0.141 A 
ATOM     31  F   UNL     1      21.070  11.971  30.094  1.00  0.00    -0.205 F 
ENDBRANCH  22  25
ENDBRANCH   3  21
TORSDOF 3
ENDMDL
MODEL 9
REMARK VINA RESULT:    -7.735      5.101      8.335
REMARK INTER + INTRA:          -9.352
REMARK INTER:                  -9.466
REMARK INTRA:                   0.114
REMARK UNBOUND:                -0.261
REMARK SMILES CN1C(N)=N[C@](C)(c2cc(NC(=O)c3ccc(F)cn3)ccc2F)CS1(=O)=O
REMARK SMILES IDX 8 1 9 2 10 3 21 4 22 5 23 6 24 7 6 8 25 9 5 10 26 11 3 12
REMARK SMILES IDX 27 13 2 14 28 15 4 16 7 17 1 18 11 21 12 22 13 23 14 25
REMARK SMILES IDX 20 26 15 27 19 28 16 29 17 30 18 31
REMARK H PARENT 4 19 4 20 11 24
ROOT
ATOM      1  C   UNL     1      19.710  11.513  27.340  1.00  0.00     0.018 A 
ATOM      2  C   UNL     1      18.827  10.881  26.466  1.00  0.00     0.035 A 
ATOM      3  C   UNL     1      17.590  11.403  26.164  1.00  0.00     0.042 A 
ATOM      4  C   UNL     1      17.165  12.590  26.749  1.00  0.00     0.029 A 
ATOM      5  C   UNL     1      18.030  13.233  27.616  1.00  0.00     0.042 A 
ATOM      6  C   UNL     1      19.281  12.714  27.885  1.00  0.00     0.129 A 
ATOM      7  F   UNL     1      20.123  13.380  28.717  1.00  0.00    -0.207 F 
ENDROOT
BRANCH   1   8
ATOM      8  C   UNL     1      21.072  10.912  27.651  1.00  0.00     0.105 C 
ATOM      9  C   UNL     1      22.222  11.895  27.649  1.00  0.00     0.195 C 
ATOM     10  N   UNL     1      21.381   9.776  26.785  1.00  0.00    -0.240 NA
ATOM     11  S   UNL     1      22.451  12.588  26.031  1.00  0.00     0.239 S 
ATOM     12  C   UNL     1      21.847   9.940  25.585  1.00  0.00     0.205 C 
ATOM     13  O   UNL     1      23.855  12.946  25.929  1.00  0.00    -0.206 OA
ATOM     14  N   UNL     1      22.208  11.195  25.047  1.00  0.00    -0.243 N 
ATOM     15  O   UNL     1      21.373  13.454  25.670  1.00  0.00    -0.206 OA
ATOM     16  N   UNL     1      22.057   8.890  24.733  1.00  0.00    -0.369 N 
ATOM     17  C   UNL     1      21.026  10.279  29.044  1.00  0.00     0.044 C 
ATOM     18  C   UNL     1      22.618  11.381  23.642  1.00  0.00     0.167 C 
ATOM     19  H   UNL     1      21.836   7.973  25.017  1.00  0.00     0.159 HD
ATOM     20  H   UNL     1      22.430   9.050  23.835  1.00  0.00     0.159 HD
ENDBRANCH   1   8
BRANCH   3  21
ATOM     21  N   UNL     1      16.798  10.667  25.273  1.00  0.00    -0.321 N 
ATOM     22  C   UNL     1      15.454  10.829  24.985  1.00  0.00     0.274 C 
ATOM     23  O   UNL     1      14.694  11.584  25.576  1.00  0.00    -0.267 OA
ATOM     24  H   UNL     1      17.256   9.942  24.790  1.00  0.00     0.170 HD
BRANCH  22  25
ATOM     25  C   UNL     1      14.951  10.031  23.840  1.00  0.00     0.128 A 
ATOM     26  N   UNL     1      13.750  10.373  23.362  1.00  0.00    -0.248 NA
ATOM     27  C   UNL     1      15.722   9.005  23.322  1.00  0.00     0.037 A 
ATOM     28  C   UNL     1      13.272   9.661  22.328  1.00  0.00     0.151 A 
ATOM     29  C   UNL     1      15.204   8.295  22.253  1.00  0.00     0.043 A 
ATOM     30  C   UNL     1      13.960   8.620  21.748  1.00  0.00     0.141 A 
ATOM     31  F   UNL     1      13.421   7.965  20.706  1.00  0.00    -0.205 F 
ENDBRANCH  22  25
ENDBRANCH   3  21
TORSDOF 3
ENDMDL
MODEL 10
REMARK VINA RESULT:    -7.656      3.428      8.595
REMARK INTER + INTRA:          -9.259
REMARK INTER:                  -9.803
REMARK INTRA:                   0.544
REMARK UNBOUND:                -0.261
REMARK SMILES CN1C(N)=N[C@](C)(c2cc(NC(=O)c3ccc(F)cn3)ccc2F)CS1(=O)=O
REMARK SMILES IDX 8 1 9 2 10 3 21 4 22 5 23 6 24 7 6 8 25 9 5 10 26 11 3 12
REMARK SMILES IDX 27 13 2 14 28 15 4 16 7 17 1 18 11 21 12 22 13 23 14 25
REMARK SMILES IDX 20 26 15 27 19 28 16 29 17 30 18 31
REMARK H PARENT 4 19 4 20 11 24
ROOT
ATOM      1  C   UNL     1      21.060  12.004  27.737  1.00  0.00     0.018 A 
ATOM      2  C   UNL     1      21.865  12.317  26.643  1.00  0.00     0.035 A 
ATOM      3  C   UNL     1      22.889  13.234  26.720  1.00  0.00     0.042 A 
ATOM      4  C   UNL     1      23.143  13.905  27.910  1.00  0.00     0.029 A 
ATOM      5  C   UNL     1      22.356  13.604  29.008  1.00  0.00     0.042 A 
ATOM      6  C   UNL     1      21.353  12.659  28.923  1.00  0.00     0.129 A 
ATOM      7  F   UNL     1      20.614  12.360  30.023  1.00  0.00    -0.207 F 
ENDROOT
BRANCH   1   8
ATOM      8  C   UNL     1      19.937  10.984  27.620  1.00  0.00     0.105 C 
ATOM      9  C   UNL     1      19.431  10.748  26.214  1.00  0.00     0.195 C 
ATOM     10  N   UNL     1      18.820  11.293  28.511  1.00  0.00    -0.240 NA
ATOM     11  S   UNL     1      18.699  12.225  25.555  1.00  0.00     0.239 S 
ATOM     12  C   UNL     1      17.915  12.167  28.192  1.00  0.00     0.205 C 
ATOM     13  O   UNL     1      17.705  11.798  24.586  1.00  0.00    -0.206 OA
ATOM     14  N   UNL     1      17.849  12.806  26.934  1.00  0.00    -0.243 N 
ATOM     15  O   UNL     1      19.681  13.234  25.307  1.00  0.00    -0.206 OA
ATOM     16  N   UNL     1      16.915  12.530  29.053  1.00  0.00    -0.369 N 
ATOM     17  C   UNL     1      20.436   9.637  28.149  1.00  0.00     0.044 C 
ATOM     18  C   UNL     1      16.891  13.887  26.631  1.00  0.00     0.167 C 
ATOM     19  H   UNL     1      16.875  12.137  29.955  1.00  0.00     0.159 HD
ATOM     20  H   UNL     1      16.234  13.183  28.770  1.00  0.00     0.159 HD
ENDBRANCH   1   8
BRANCH   3  21
ATOM     21  N   UNL     1      23.620  13.459  25.547  1.00  0.00    -0.321 N 
ATOM     22  C   UNL     1      24.315  12.540  24.781  1.00  0.00     0.274 C 
ATOM     23  O   UNL     1      24.512  11.372  25.088  1.00  0.00    -0.267 OA
ATOM     24  H   UNL     1      23.642  14.390  25.227  1.00  0.00     0.170 HD
BRANCH  22  25
ATOM     25  C   UNL     1      24.813  13.049  23.479  1.00  0.00     0.128 A 
ATOM     26  N   UNL     1      24.452  12.354  22.395  1.00  0.00    -0.248 NA
ATOM     27  C   UNL     1      25.595  14.190  23.436  1.00  0.00     0.037 A 
ATOM     28  C   UNL     1      24.894  12.793  21.205  1.00  0.00     0.151 A 
ATOM     29  C   UNL     1      26.030  14.620  22.195  1.00  0.00     0.043 A 
ATOM     30  C   UNL     1      25.681  13.913  21.061  1.00  0.00     0.141 A 
ATOM     31  F   UNL     1      26.072  14.298  19.834  1.00  0.00    -0.205 F 
ENDBRANCH  22  25
ENDBRANCH   3  21
TORSDOF 3
ENDMDL
MODEL 11
REMARK VINA RESULT:    -7.526      2.624      3.992
REMARK INTER + INTRA:          -9.107
REMARK INTER:                  -9.698
REMARK INTRA:                   0.591
REMARK UNBOUND:                -0.261
REMARK SMILES CN1C(N)=N[C@](C)(c2cc(NC(=O)c3ccc(F)cn3)ccc2F)CS1(=O)=O
REMARK SMILES IDX 8 1 9 2 10 3 21 4 22 5 23 6 24 7 6 8 25 9 5 10 26 11 3 12
REMARK SMILES IDX 27 13 2 14 28 15 4 16 7 17 1 18 11 21 12 22 13 23 14 25
REMARK SMILES IDX 20 26 15 27 19 28 16 29 17 30 18 31
REMARK H PARENT 4 19 4 20 11 24
ROOT
ATOM      1  C   UNL     1      25.942  14.028  22.879  1.00  0.00     0.018 A 
ATOM      2  C   UNL     1      24.895  13.965  23.798  1.00  0.00     0.035 A 
ATOM      3  C   UNL     1      25.111  13.872  25.154  1.00  0.00     0.042 A 
ATOM      4  C   UNL     1      26.404  13.815  25.658  1.00  0.00     0.029 A 
ATOM      5  C   UNL     1      27.456  13.880  24.761  1.00  0.00     0.042 A 
ATOM      6  C   UNL     1      27.224  14.005  23.405  1.00  0.00     0.129 A 
ATOM      7  F   UNL     1      28.273  14.097  22.548  1.00  0.00    -0.207 F 
ENDROOT
BRANCH   1   8
ATOM      8  C   UNL     1      25.671  14.134  21.386  1.00  0.00     0.105 C 
ATOM      9  C   UNL     1      24.249  13.830  20.970  1.00  0.00     0.195 C 
ATOM     10  N   UNL     1      26.606  13.331  20.601  1.00  0.00    -0.240 NA
ATOM     11  S   UNL     1      23.837  12.142  21.332  1.00  0.00     0.239 S 
ATOM     12  C   UNL     1      26.436  12.056  20.433  1.00  0.00     0.205 C 
ATOM     13  O   UNL     1      22.819  11.749  20.375  1.00  0.00    -0.206 OA
ATOM     14  N   UNL     1      25.297  11.350  20.878  1.00  0.00    -0.243 N 
ATOM     15  O   UNL     1      23.747  11.911  22.741  1.00  0.00    -0.206 OA
ATOM     16  N   UNL     1      27.350  11.277  19.775  1.00  0.00    -0.369 N 
ATOM     17  C   UNL     1      25.976  15.563  20.928  1.00  0.00     0.044 C 
ATOM     18  C   UNL     1      25.174   9.881  20.790  1.00  0.00     0.167 C 
ATOM     19  H   UNL     1      28.178  11.679  19.426  1.00  0.00     0.159 HD
ATOM     20  H   UNL     1      27.179  10.315  19.650  1.00  0.00     0.159 HD
ENDBRANCH   1   8
BRANCH   3  21
ATOM     21  N   UNL     1      23.973  13.814  25.968  1.00  0.00    -0.321 N 
ATOM     22  C   UNL     1      23.242  12.700  26.342  1.00  0.00     0.274 C 
ATOM     23  O   UNL     1      23.408  11.570  25.902  1.00  0.00    -0.267 OA
ATOM     24  H   UNL     1      23.651  14.676  26.320  1.00  0.00     0.170 HD
BRANCH  22  25
ATOM     25  C   UNL     1      22.214  12.937  27.384  1.00  0.00     0.128 A 
ATOM     26  N   UNL     1      21.003  12.419  27.151  1.00  0.00    -0.248 NA
ATOM     27  C   UNL     1      22.537  13.652  28.524  1.00  0.00     0.037 A 
ATOM     28  C   UNL     1      20.054  12.625  28.078  1.00  0.00     0.151 A 
ATOM     29  C   UNL     1      21.540  13.842  29.464  1.00  0.00     0.043 A 
ATOM     30  C   UNL     1      20.277  13.327  29.241  1.00  0.00     0.141 A 
ATOM     31  F   UNL     1      19.280  13.478  30.129  1.00  0.00    -0.205 F 
ENDBRANCH  22  25
ENDBRANCH   3  21
TORSDOF 3
ENDMDL
MODEL 12
REMARK VINA RESULT:    -7.456      2.466      3.514
REMARK INTER + INTRA:          -9.024
REMARK INTER:                  -9.321
REMARK INTRA:                   0.297
REMARK UNBOUND:                -0.261
REMARK SMILES CN1C(N)=N[C@](C)(c2cc(NC(=O)c3ccc(F)cn3)ccc2F)CS1(=O)=O
REMARK SMILES IDX 8 1 9 2 10 3 21 4 22 5 23 6 24 7 6 8 25 9 5 10 26 11 3 12
REMARK SMILES IDX 27 13 2 14 28 15 4 16 7 17 1 18 11 21 12 22 13 23 14 25
REMARK SMILES IDX 20 26 15 27 19 28 16 29 17 30 18 31
REMARK H PARENT 4 19 4 20 11 24
ROOT
ATOM      1  C   UNL     1      23.958  13.632  21.804  1.00  0.00     0.018 A 
ATOM      2  C   UNL     1      23.195  13.131  22.858  1.00  0.00     0.035 A 
ATOM      3  C   UNL     1      23.326  13.596  24.147  1.00  0.00     0.042 A 
ATOM      4  C   UNL     1      24.256  14.583  24.448  1.00  0.00     0.029 A 
ATOM      5  C   UNL     1      25.019  15.094  23.414  1.00  0.00     0.042 A 
ATOM      6  C   UNL     1      24.855  14.641  22.120  1.00  0.00     0.129 A 
ATOM      7  F   UNL     1      25.596  15.180  21.118  1.00  0.00    -0.207 F 
ENDROOT
BRANCH   1   8
ATOM      8  C   UNL     1      23.789  13.100  20.390  1.00  0.00     0.105 C 
ATOM      9  C   UNL     1      23.325  11.663  20.297  1.00  0.00     0.195 C 
ATOM     10  N   UNL     1      24.993  13.292  19.583  1.00  0.00    -0.240 NA
ATOM     11  S   UNL     1      24.536  10.567  20.994  1.00  0.00     0.239 S 
ATOM     12  C   UNL     1      25.999  12.475  19.655  1.00  0.00     0.205 C 
ATOM     13  O   UNL     1      24.380   9.293  20.315  1.00  0.00    -0.206 OA
ATOM     14  N   UNL     1      25.989  11.282  20.410  1.00  0.00    -0.243 N 
ATOM     15  O   UNL     1      24.627  10.716  22.413  1.00  0.00    -0.206 OA
ATOM     16  N   UNL     1      27.166  12.692  18.973  1.00  0.00    -0.369 N 
ATOM     17  C   UNL     1      22.748  13.955  19.661  1.00  0.00     0.044 C 
ATOM     18  C   UNL     1      27.182  10.428  20.581  1.00  0.00     0.167 C 
ATOM     19  H   UNL     1      27.268  13.498  18.417  1.00  0.00     0.159 HD
ATOM     20  H   UNL     1      27.902  12.041  19.037  1.00  0.00     0.159 HD
ENDBRANCH   1   8
BRANCH   3  21
ATOM     21  N   UNL     1      22.500  13.006  25.114  1.00  0.00    -0.321 N 
ATOM     22  C   UNL     1      22.734  11.863  25.858  1.00  0.00     0.274 C 
ATOM     23  O   UNL     1      23.672  11.094  25.692  1.00  0.00    -0.267 OA
ATOM     24  H   UNL     1      21.646  13.463  25.285  1.00  0.00     0.170 HD
BRANCH  22  25
ATOM     25  C   UNL     1      21.765  11.611  26.952  1.00  0.00     0.128 A 
ATOM     26  N   UNL     1      20.683  10.893  26.633  1.00  0.00    -0.248 NA
ATOM     27  C   UNL     1      22.014  12.102  28.222  1.00  0.00     0.037 A 
ATOM     28  C   UNL     1      19.789  10.656  27.607  1.00  0.00     0.151 A 
ATOM     29  C   UNL     1      21.078  11.836  29.205  1.00  0.00     0.043 A 
ATOM     30  C   UNL     1      19.945  11.107  28.898  1.00  0.00     0.141 A 
ATOM     31  F   UNL     1      19.014  10.816  29.821  1.00  0.00    -0.205 F 
ENDBRANCH  22  25
ENDBRANCH   3  21
TORSDOF 3
ENDMDL
MODEL 13
REMARK VINA RESULT:    -7.451      3.693      8.229
REMARK INTER + INTRA:          -9.019
REMARK INTER:                  -8.593
REMARK INTRA:                  -0.426
REMARK UNBOUND:                -0.261
REMARK SMILES CN1C(N)=N[C@](C)(c2cc(NC(=O)c3ccc(F)cn3)ccc2F)CS1(=O)=O
REMARK SMILES IDX 8 1 9 2 10 3 21 4 22 5 23 6 24 7 6 8 25 9 5 10 26 11 3 12
REMARK SMILES IDX 27 13 2 14 28 15 4 16 7 17 1 18 11 21 12 22 13 23 14 25
REMARK SMILES IDX 20 26 15 27 19 28 16 29 17 30 18 31
REMARK H PARENT 4 19 4 20 11 24
ROOT
ATOM      1  C   UNL     1      24.961  12.842  21.352  1.00  0.00     0.018 A 
ATOM      2  C   UNL     1      25.760  13.689  20.587  1.00  0.00     0.035 A 
ATOM      3  C   UNL     1      25.261  14.418  19.531  1.00  0.00     0.042 A 
ATOM      4  C   UNL     1      23.922  14.311  19.174  1.00  0.00     0.029 A 
ATOM      5  C   UNL     1      23.114  13.477  19.925  1.00  0.00     0.042 A 
ATOM      6  C   UNL     1      23.622  12.777  21.001  1.00  0.00     0.129 A 
ATOM      7  F   UNL     1      22.800  11.988  21.740  1.00  0.00    -0.207 F 
ENDROOT
BRANCH   1   8
ATOM      8  C   UNL     1      25.543  12.053  22.515  1.00  0.00     0.105 C 
ATOM      9  C   UNL     1      24.786  12.182  23.818  1.00  0.00     0.195 C 
ATOM     10  N   UNL     1      26.959  12.348  22.725  1.00  0.00    -0.240 NA
ATOM     11  S   UNL     1      24.833  13.855  24.408  1.00  0.00     0.239 S 
ATOM     12  C   UNL     1      27.346  13.397  23.383  1.00  0.00     0.205 C 
ATOM     13  O   UNL     1      24.714  13.789  25.853  1.00  0.00    -0.206 OA
ATOM     14  N   UNL     1      26.464  14.276  24.050  1.00  0.00    -0.243 N 
ATOM     15  O   UNL     1      24.064  14.729  23.578  1.00  0.00    -0.206 OA
ATOM     16  N   UNL     1      28.667  13.733  23.511  1.00  0.00    -0.369 N 
ATOM     17  C   UNL     1      25.553  10.566  22.148  1.00  0.00     0.044 C 
ATOM     18  C   UNL     1      26.908  15.531  24.688  1.00  0.00     0.167 C 
ATOM     19  H   UNL     1      29.359  13.180  23.082  1.00  0.00     0.159 HD
ATOM     20  H   UNL     1      28.925  14.527  24.034  1.00  0.00     0.159 HD
ENDBRANCH   1   8
BRANCH   3  21
ATOM     21  N   UNL     1      26.171  15.230  18.842  1.00  0.00    -0.321 N 
ATOM     22  C   UNL     1      26.568  16.520  19.144  1.00  0.00     0.274 C 
ATOM     23  O   UNL     1      26.075  17.222  20.018  1.00  0.00    -0.267 OA
ATOM     24  H   UNL     1      26.581  14.831  18.040  1.00  0.00     0.170 HD
BRANCH  22  25
ATOM     25  C   UNL     1      27.706  17.036  18.345  1.00  0.00     0.128 A 
ATOM     26  N   UNL     1      28.821  17.329  19.022  1.00  0.00    -0.248 NA
ATOM     27  C   UNL     1      27.578  17.181  16.975  1.00  0.00     0.037 A 
ATOM     28  C   UNL     1      29.864  17.803  18.320  1.00  0.00     0.151 A 
ATOM     29  C   UNL     1      28.672  17.665  16.278  1.00  0.00     0.043 A 
ATOM     30  C   UNL     1      29.832  17.986  16.956  1.00  0.00     0.141 A 
ATOM     31  F   UNL     1      30.922  18.451  16.322  1.00  0.00    -0.205 F 
ENDBRANCH  22  25
ENDBRANCH   3  21
TORSDOF 3
ENDMDL
MODEL 14
REMARK VINA RESULT:    -7.330      2.673      4.033
REMARK INTER + INTRA:          -8.876
REMARK INTER:                  -8.645
REMARK INTRA:                  -0.231
REMARK UNBOUND:                -0.261
REMARK SMILES CN1C(N)=N[C@](C)(c2cc(NC(=O)c3ccc(F)cn3)ccc2F)CS1(=O)=O
REMARK SMILES IDX 8 1 9 2 10 3 21 4 22 5 23 6 24 7 6 8 25 9 5 10 26 11 3 12
REMARK SMILES IDX 27 13 2 14 28 15 4 16 7 17 1 18 11 21 12 22 13 23 14 25
REMARK SMILES IDX 20 26 15 27 19 28 16 29 17 30 18 31
REMARK H PARENT 4 19 4 20 11 24
ROOT
ATOM      1  C   UNL     1      26.330  13.326  22.591  1.00  0.00     0.018 A 
ATOM      2  C   UNL     1      25.342  12.970  23.508  1.00  0.00     0.035 A 
ATOM      3  C   UNL     1      24.763  13.884  24.359  1.00  0.00     0.042 A 
ATOM      4  C   UNL     1      25.170  15.212  24.348  1.00  0.00     0.029 A 
ATOM      5  C   UNL     1      26.148  15.584  23.442  1.00  0.00     0.042 A 
ATOM      6  C   UNL     1      26.696  14.663  22.572  1.00  0.00     0.129 A 
ATOM      7  F   UNL     1      27.633  15.061  21.673  1.00  0.00    -0.207 F 
ENDROOT
BRANCH   1   8
ATOM      8  C   UNL     1      26.947  12.294  21.661  1.00  0.00     0.105 C 
ATOM      9  C   UNL     1      26.714  12.538  20.187  1.00  0.00     0.195 C 
ATOM     10  N   UNL     1      26.551  10.931  22.013  1.00  0.00    -0.240 NA
ATOM     11  S   UNL     1      24.984  12.439  19.802  1.00  0.00     0.239 S 
ATOM     12  C   UNL     1      25.414  10.434  21.637  1.00  0.00     0.205 C 
ATOM     13  O   UNL     1      24.892  12.023  18.414  1.00  0.00    -0.206 OA
ATOM     14  N   UNL     1      24.515  11.094  20.770  1.00  0.00    -0.243 N 
ATOM     15  O   UNL     1      24.255  13.534  20.362  1.00  0.00    -0.206 OA
ATOM     16  N   UNL     1      24.992   9.193  22.033  1.00  0.00    -0.369 N 
ATOM     17  C   UNL     1      28.463  12.277  21.878  1.00  0.00     0.044 C 
ATOM     18  C   UNL     1      23.173  10.570  20.450  1.00  0.00     0.167 C 
ATOM     19  H   UNL     1      25.551   8.653  22.638  1.00  0.00     0.159 HD
ATOM     20  H   UNL     1      24.131   8.840  21.712  1.00  0.00     0.159 HD
ENDBRANCH   1   8
BRANCH   3  21
ATOM     21  N   UNL     1      23.783  13.395  25.233  1.00  0.00    -0.321 N 
ATOM     22  C   UNL     1      23.795  13.388  26.617  1.00  0.00     0.274 C 
ATOM     23  O   UNL     1      24.751  13.702  27.314  1.00  0.00    -0.267 OA
ATOM     24  H   UNL     1      22.984  13.007  24.808  1.00  0.00     0.170 HD
BRANCH  22  25
ATOM     25  C   UNL     1      22.518  12.994  27.259  1.00  0.00     0.128 A 
ATOM     26  N   UNL     1      21.467  12.846  26.446  1.00  0.00    -0.248 NA
ATOM     27  C   UNL     1      22.466  12.791  28.627  1.00  0.00     0.037 A 
ATOM     28  C   UNL     1      20.297  12.493  27.006  1.00  0.00     0.151 A 
ATOM     29  C   UNL     1      21.249  12.423  29.173  1.00  0.00     0.043 A 
ATOM     30  C   UNL     1      20.145  12.275  28.356  1.00  0.00     0.141 A 
ATOM     31  F   UNL     1      18.945  11.910  28.840  1.00  0.00    -0.205 F 
ENDBRANCH  22  25
ENDBRANCH   3  21
TORSDOF 3
ENDMDL
MODEL 15
REMARK VINA RESULT:    -7.293      2.824      3.857
REMARK INTER + INTRA:          -8.832
REMARK INTER:                  -9.220
REMARK INTRA:                   0.388
REMARK UNBOUND:                -0.261
REMARK SMILES CN1C(N)=N[C@](C)(c2cc(NC(=O)c3ccc(F)cn3)ccc2F)CS1(=O)=O
REMARK SMILES IDX 8 1 9 2 10 3 21 4 22 5 23 6 24 7 6 8 25 9 5 10 26 11 3 12
REMARK SMILES IDX 27 13 2 14 28 15 4 16 7 17 1 18 11 21 12 22 13 23 14 25
REMARK SMILES IDX 20 26 15 27 19 28 16 29 17 30 18 31
REMARK H PARENT 4 19 4 20 11 24
ROOT
ATOM      1  C   UNL     1      26.885  14.066  23.235  1.00  0.00     0.018 A 
ATOM      2  C   UNL     1      25.556  13.681  23.412  1.00  0.00     0.035 A 
ATOM      3  C   UNL     1      24.984  13.563  24.658  1.00  0.00     0.042 A 
ATOM      4  C   UNL     1      25.732  13.808  25.803  1.00  0.00     0.029 A 
ATOM      5  C   UNL     1      27.052  14.194  25.646  1.00  0.00     0.042 A 
ATOM      6  C   UNL     1      27.604  14.339  24.389  1.00  0.00     0.129 A 
ATOM      7  F   UNL     1      28.893  14.748  24.262  1.00  0.00    -0.207 F 
ENDROOT
BRANCH   1   8
ATOM      8  C   UNL     1      27.488  14.190  21.845  1.00  0.00     0.105 C 
ATOM      9  C   UNL     1      26.765  13.420  20.762  1.00  0.00     0.195 C 
ATOM     10  N   UNL     1      28.912  13.858  21.833  1.00  0.00    -0.240 NA
ATOM     11  S   UNL     1      26.842  11.675  21.076  1.00  0.00     0.239 S 
ATOM     12  C   UNL     1      29.324  12.628  21.785  1.00  0.00     0.205 C 
ATOM     13  O   UNL     1      26.758  11.018  19.784  1.00  0.00    -0.206 OA
ATOM     14  N   UNL     1      28.466  11.518  21.624  1.00  0.00    -0.243 N 
ATOM     15  O   UNL     1      26.060  11.310  22.216  1.00  0.00    -0.206 OA
ATOM     16  N   UNL     1      30.651  12.299  21.862  1.00  0.00    -0.369 N 
ATOM     17  C   UNL     1      27.477  15.664  21.431  1.00  0.00     0.044 C 
ATOM     18  C   UNL     1      28.937  10.120  21.696  1.00  0.00     0.167 C 
ATOM     19  H   UNL     1      31.327  13.006  21.975  1.00  0.00     0.159 HD
ATOM     20  H   UNL     1      30.928  11.356  21.804  1.00  0.00     0.159 HD
ENDBRANCH   1   8
BRANCH   3  21
ATOM     21  N   UNL     1      23.641  13.166  24.697  1.00  0.00    -0.321 N 
ATOM     22  C   UNL     1      23.122  11.932  25.046  1.00  0.00     0.274 C 
ATOM     23  O   UNL     1      23.784  10.925  25.261  1.00  0.00    -0.267 OA
ATOM     24  H   UNL     1      22.982  13.853  24.443  1.00  0.00     0.170 HD
BRANCH  22  25
ATOM     25  C   UNL     1      21.647  11.884  25.193  1.00  0.00     0.128 A 
ATOM     26  N   UNL     1      21.004  13.054  25.111  1.00  0.00    -0.248 NA
ATOM     27  C   UNL     1      21.011  10.670  25.392  1.00  0.00     0.037 A 
ATOM     28  C   UNL     1      19.668  13.036  25.246  1.00  0.00     0.151 A 
ATOM     29  C   UNL     1      19.634  10.684  25.521  1.00  0.00     0.043 A 
ATOM     30  C   UNL     1      18.948  11.881  25.452  1.00  0.00     0.141 A 
ATOM     31  F   UNL     1      17.610  11.942  25.562  1.00  0.00    -0.205 F 
ENDBRANCH  22  25
ENDBRANCH   3  21
TORSDOF 3
ENDMDL
MODEL 16
REMARK VINA RESULT:    -7.161      3.098      4.210
REMARK INTER + INTRA:          -8.678
REMARK INTER:                  -9.015
REMARK INTRA:                   0.337
REMARK UNBOUND:                -0.261
REMARK SMILES CN1C(N)=N[C@](C)(c2cc(NC(=O)c3ccc(F)cn3)ccc2F)CS1(=O)=O
REMARK SMILES IDX 8 1 9 2 10 3 21 4 22 5 23 6 24 7 6 8 25 9 5 10 26 11 3 12
REMARK SMILES IDX 27 13 2 14 28 15 4 16 7 17 1 18 11 21 12 22 13 23 14 25
REMARK SMILES IDX 20 26 15 27 19 28 16 29 17 30 18 31
REMARK H PARENT 4 19 4 20 11 24
ROOT
ATOM      1  C   UNL     1      27.752  14.709  22.723  1.00  0.00     0.018 A 
ATOM      2  C   UNL     1      26.780  14.367  23.662  1.00  0.00     0.035 A 
ATOM      3  C   UNL     1      25.434  14.487  23.405  1.00  0.00     0.042 A 
ATOM      4  C   UNL     1      24.992  14.986  22.186  1.00  0.00     0.029 A 
ATOM      5  C   UNL     1      25.942  15.328  21.240  1.00  0.00     0.042 A 
ATOM      6  C   UNL     1      27.290  15.171  21.500  1.00  0.00     0.129 A 
ATOM      7  F   UNL     1      28.201  15.486  20.545  1.00  0.00    -0.207 F 
ENDROOT
BRANCH   1   8
ATOM      8  C   UNL     1      29.233  14.562  23.036  1.00  0.00     0.105 C 
ATOM      9  C   UNL     1      29.586  14.615  24.505  1.00  0.00     0.195 C 
ATOM     10  N   UNL     1      30.050  15.517  22.289  1.00  0.00    -0.240 NA
ATOM     11  S   UNL     1      29.190  16.205  25.188  1.00  0.00     0.239 S 
ATOM     12  C   UNL     1      30.198  16.743  22.685  1.00  0.00     0.205 C 
ATOM     13  O   UNL     1      30.100  16.416  26.300  1.00  0.00    -0.206 OA
ATOM     14  N   UNL     1      29.698  17.239  23.909  1.00  0.00    -0.243 N 
ATOM     15  O   UNL     1      27.777  16.413  25.256  1.00  0.00    -0.206 OA
ATOM     16  N   UNL     1      30.886  17.671  21.950  1.00  0.00    -0.369 N 
ATOM     17  C   UNL     1      29.717  13.209  22.507  1.00  0.00     0.044 C 
ATOM     18  C   UNL     1      29.767  18.664  24.289  1.00  0.00     0.167 C 
ATOM     19  H   UNL     1      31.274  17.420  21.080  1.00  0.00     0.159 HD
ATOM     20  H   UNL     1      30.994  18.588  22.291  1.00  0.00     0.159 HD
ENDBRANCH   1   8
BRANCH   3  21
ATOM     21  N   UNL     1      24.562  14.111  24.435  1.00  0.00    -0.321 N 
ATOM     22  C   UNL     1      24.070  12.851  24.724  1.00  0.00     0.274 C 
ATOM     23  O   UNL     1      24.224  11.857  24.025  1.00  0.00    -0.267 OA
ATOM     24  H   UNL     1      24.262  14.836  25.030  1.00  0.00     0.170 HD
BRANCH  22  25
ATOM     25  C   UNL     1      23.335  12.736  26.007  1.00  0.00     0.128 A 
ATOM     26  N   UNL     1      23.632  13.643  26.943  1.00  0.00    -0.248 NA
ATOM     27  C   UNL     1      22.393  11.736  26.177  1.00  0.00     0.037 A 
ATOM     28  C   UNL     1      22.982  13.557  28.116  1.00  0.00     0.151 A 
ATOM     29  C   UNL     1      21.736  11.677  27.393  1.00  0.00     0.043 A 
ATOM     30  C   UNL     1      22.034  12.595  28.382  1.00  0.00     0.141 A 
ATOM     31  F   UNL     1      21.416  12.582  29.575  1.00  0.00    -0.205 F 
ENDBRANCH  22  25
ENDBRANCH   3  21
TORSDOF 3
ENDMDL
MODEL 17
REMARK VINA RESULT:    -7.068      3.625      8.190
REMARK INTER + INTRA:          -8.568
REMARK INTER:                  -8.422
REMARK INTRA:                  -0.146
REMARK UNBOUND:                -0.261
REMARK SMILES CN1C(N)=N[C@](C)(c2cc(NC(=O)c3ccc(F)cn3)ccc2F)CS1(=O)=O
REMARK SMILES IDX 8 1 9 2 10 3 21 4 22 5 23 6 24 7 6 8 25 9 5 10 26 11 3 12
REMARK SMILES IDX 27 13 2 14 28 15 4 16 7 17 1 18 11 21 12 22 13 23 14 25
REMARK SMILES IDX 20 26 15 27 19 28 16 29 17 30 18 31
REMARK H PARENT 4 19 4 20 11 24
ROOT
ATOM      1  C   UNL     1      24.957  13.609  23.358  1.00  0.00     0.018 A 
ATOM      2  C   UNL     1      25.873  14.386  22.650  1.00  0.00     0.035 A 
ATOM      3  C   UNL     1      27.054  14.821  23.206  1.00  0.00     0.042 A 
ATOM      4  C   UNL     1      27.368  14.511  24.524  1.00  0.00     0.029 A 
ATOM      5  C   UNL     1      26.472  13.737  25.240  1.00  0.00     0.042 A 
ATOM      6  C   UNL     1      25.305  13.281  24.660  1.00  0.00     0.129 A 
ATOM      7  F   UNL     1      24.457  12.499  25.376  1.00  0.00    -0.207 F 
ENDROOT
BRANCH   1   8
ATOM      8  C   UNL     1      23.661  13.142  22.715  1.00  0.00     0.105 C 
ATOM      9  C   UNL     1      23.541  11.646  22.527  1.00  0.00     0.195 C 
ATOM     10  N   UNL     1      23.396  13.829  21.452  1.00  0.00    -0.240 NA
ATOM     11  S   UNL     1      24.781  11.054  21.403  1.00  0.00     0.239 S 
ATOM     12  C   UNL     1      23.956  13.455  20.343  1.00  0.00     0.205 C 
ATOM     13  O   UNL     1      24.238   9.862  20.778  1.00  0.00    -0.206 OA
ATOM     14  N   UNL     1      24.765  12.304  20.220  1.00  0.00    -0.243 N 
ATOM     15  O   UNL     1      26.091  11.138  21.971  1.00  0.00    -0.206 OA
ATOM     16  N   UNL     1      23.786  14.143  19.171  1.00  0.00    -0.369 N 
ATOM     17  C   UNL     1      22.486  13.578  23.595  1.00  0.00     0.044 C 
ATOM     18  C   UNL     1      25.494  11.961  18.983  1.00  0.00     0.167 C 
ATOM     19  H   UNL     1      23.238  14.960  19.155  1.00  0.00     0.159 HD
ATOM     20  H   UNL     1      24.212  13.819  18.344  1.00  0.00     0.159 HD
ENDBRANCH   1   8
BRANCH   3  21
ATOM     21  N   UNL     1      27.885  15.597  22.388  1.00  0.00    -0.321 N 
ATOM     22  C   UNL     1      29.198  15.355  22.024  1.00  0.00     0.274 C 
ATOM     23  O   UNL     1      29.901  14.462  22.477  1.00  0.00    -0.267 OA
ATOM     24  H   UNL     1      27.483  16.419  22.025  1.00  0.00     0.170 HD
BRANCH  22  25
ATOM     25  C   UNL     1      29.739  16.253  20.974  1.00  0.00     0.128 A 
ATOM     26  N   UNL     1      31.071  16.353  20.910  1.00  0.00    -0.248 NA
ATOM     27  C   UNL     1      28.876  16.922  20.124  1.00  0.00     0.037 A 
ATOM     28  C   UNL     1      31.585  17.164  19.970  1.00  0.00     0.151 A 
ATOM     29  C   UNL     1      29.436  17.744  19.162  1.00  0.00     0.043 A 
ATOM     30  C   UNL     1      30.809  17.874  19.083  1.00  0.00     0.141 A 
ATOM     31  F   UNL     1      31.397  18.654  18.160  1.00  0.00    -0.205 F 
ENDBRANCH  22  25
ENDBRANCH   3  21
TORSDOF 3
ENDMDL
MODEL 18
REMARK VINA RESULT:    -7.022      4.674      8.802
REMARK INTER + INTRA:          -8.514
REMARK INTER:                  -8.116
REMARK INTRA:                  -0.398
REMARK UNBOUND:                -0.261
REMARK SMILES CN1C(N)=N[C@](C)(c2cc(NC(=O)c3ccc(F)cn3)ccc2F)CS1(=O)=O
REMARK SMILES IDX 8 1 9 2 10 3 21 4 22 5 23 6 24 7 6 8 25 9 5 10 26 11 3 12
REMARK SMILES IDX 27 13 2 14 28 15 4 16 7 17 1 18 11 21 12 22 13 23 14 25
REMARK SMILES IDX 20 26 15 27 19 28 16 29 17 30 18 31
REMARK H PARENT 4 19 4 20 11 24
ROOT
ATOM      1  C   UNL     1      26.981  14.526  20.610  1.00  0.00     0.018 A 
ATOM      2  C   UNL     1      28.190  15.121  20.966  1.00  0.00     0.035 A 
ATOM      3  C   UNL     1      28.505  16.415  20.616  1.00  0.00     0.042 A 
ATOM      4  C   UNL     1      27.619  17.175  19.863  1.00  0.00     0.029 A 
ATOM      5  C   UNL     1      26.413  16.601  19.503  1.00  0.00     0.042 A 
ATOM      6  C   UNL     1      26.097  15.313  19.889  1.00  0.00     0.129 A 
ATOM      7  F   UNL     1      24.894  14.784  19.548  1.00  0.00    -0.207 F 
ENDROOT
BRANCH   1   8
ATOM      8  C   UNL     1      26.661  13.095  21.014  1.00  0.00     0.105 C 
ATOM      9  C   UNL     1      25.362  12.918  21.768  1.00  0.00     0.195 C 
ATOM     10  N   UNL     1      27.759  12.476  21.755  1.00  0.00    -0.240 NA
ATOM     11  S   UNL     1      25.418  13.770  23.324  1.00  0.00     0.239 S 
ATOM     12  C   UNL     1      27.928  12.683  23.024  1.00  0.00     0.205 C 
ATOM     13  O   UNL     1      24.520  13.060  24.217  1.00  0.00    -0.206 OA
ATOM     14  N   UNL     1      27.025  13.414  23.828  1.00  0.00    -0.243 N 
ATOM     15  O   UNL     1      25.421  15.189  23.148  1.00  0.00    -0.206 OA
ATOM     16  N   UNL     1      29.001  12.182  23.710  1.00  0.00    -0.369 N 
ATOM     17  C   UNL     1      26.569  12.233  19.752  1.00  0.00     0.044 C 
ATOM     18  C   UNL     1      27.293  13.747  25.241  1.00  0.00     0.167 C 
ATOM     19  H   UNL     1      29.687  11.657  23.237  1.00  0.00     0.159 HD
ATOM     20  H   UNL     1      29.087  12.344  24.678  1.00  0.00     0.159 HD
ENDBRANCH   1   8
BRANCH   3  21
ATOM     21  N   UNL     1      29.754  16.892  21.035  1.00  0.00    -0.321 N 
ATOM     22  C   UNL     1      30.167  17.201  22.319  1.00  0.00     0.274 C 
ATOM     23  O   UNL     1      29.442  17.226  23.305  1.00  0.00    -0.267 OA
ATOM     24  H   UNL     1      30.423  17.024  20.325  1.00  0.00     0.170 HD
BRANCH  22  25
ATOM     25  C   UNL     1      31.616  17.482  22.468  1.00  0.00     0.128 A 
ATOM     26  N   UNL     1      32.311  17.625  21.335  1.00  0.00    -0.248 NA
ATOM     27  C   UNL     1      32.172  17.592  23.730  1.00  0.00     0.037 A 
ATOM     28  C   UNL     1      33.626  17.875  21.445  1.00  0.00     0.151 A 
ATOM     29  C   UNL     1      33.528  17.857  23.811  1.00  0.00     0.043 A 
ATOM     30  C   UNL     1      34.271  17.997  22.655  1.00  0.00     0.141 A 
ATOM     31  F   UNL     1      35.588  18.263  22.683  1.00  0.00    -0.205 F 
ENDBRANCH  22  25
ENDBRANCH   3  21
TORSDOF 3
ENDMDL
MODEL 19
REMARK VINA RESULT:    -6.984      4.121      9.122
REMARK INTER + INTRA:          -8.469
REMARK INTER:                  -8.313
REMARK INTRA:                  -0.156
REMARK UNBOUND:                -0.261
REMARK SMILES CN1C(N)=N[C@](C)(c2cc(NC(=O)c3ccc(F)cn3)ccc2F)CS1(=O)=O
REMARK SMILES IDX 8 1 9 2 10 3 21 4 22 5 23 6 24 7 6 8 25 9 5 10 26 11 3 12
REMARK SMILES IDX 27 13 2 14 28 15 4 16 7 17 1 18 11 21 12 22 13 23 14 25
REMARK SMILES IDX 20 26 15 27 19 28 16 29 17 30 18 31
REMARK H PARENT 4 19 4 20 11 24
ROOT
ATOM      1  C   UNL     1      26.435  14.392  22.686  1.00  0.00     0.018 A 
ATOM      2  C   UNL     1      26.719  15.047  21.489  1.00  0.00     0.035 A 
ATOM      3  C   UNL     1      27.959  15.578  21.216  1.00  0.00     0.042 A 
ATOM      4  C   UNL     1      28.981  15.495  22.153  1.00  0.00     0.029 A 
ATOM      5  C   UNL     1      28.719  14.845  23.345  1.00  0.00     0.042 A 
ATOM      6  C   UNL     1      27.479  14.289  23.593  1.00  0.00     0.129 A 
ATOM      7  F   UNL     1      27.257  13.631  24.759  1.00  0.00    -0.207 F 
ENDROOT
BRANCH   1   8
ATOM      8  C   UNL     1      25.055  13.813  22.957  1.00  0.00     0.105 C 
ATOM      9  C   UNL     1      25.026  12.324  23.220  1.00  0.00     0.195 C 
ATOM     10  N   UNL     1      24.100  14.156  21.905  1.00  0.00    -0.240 NA
ATOM     11  S   UNL     1      25.563  11.423  21.788  1.00  0.00     0.239 S 
ATOM     12  C   UNL     1      24.043  13.490  20.792  1.00  0.00     0.205 C 
ATOM     13  O   UNL     1      24.912  10.126  21.846  1.00  0.00    -0.206 OA
ATOM     14  N   UNL     1      24.795  12.322  20.536  1.00  0.00    -0.243 N 
ATOM     15  O   UNL     1      26.958  11.612  21.539  1.00  0.00    -0.206 OA
ATOM     16  N   UNL     1      23.216  13.855  19.764  1.00  0.00    -0.369 N 
ATOM     17  C   UNL     1      24.465  14.499  24.192  1.00  0.00     0.044 C 
ATOM     18  C   UNL     1      24.813  11.649  19.223  1.00  0.00     0.167 C 
ATOM     19  H   UNL     1      22.651  14.657  19.848  1.00  0.00     0.159 HD
ATOM     20  H   UNL     1      23.186  13.315  18.941  1.00  0.00     0.159 HD
ENDBRANCH   1   8
BRANCH   3  21
ATOM     21  N   UNL     1      28.111  16.214  19.976  1.00  0.00    -0.321 N 
ATOM     22  C   UNL     1      28.700  17.436  19.706  1.00  0.00     0.274 C 
ATOM     23  O   UNL     1      29.079  18.237  20.551  1.00  0.00    -0.267 OA
ATOM     24  H   UNL     1      27.753  15.728  19.198  1.00  0.00     0.170 HD
BRANCH  22  25
ATOM     25  C   UNL     1      28.897  17.740  18.268  1.00  0.00     0.128 A 
ATOM     26  N   UNL     1      27.795  17.768  17.512  1.00  0.00    -0.248 NA
ATOM     27  C   UNL     1      30.169  17.986  17.782  1.00  0.00     0.037 A 
ATOM     28  C   UNL     1      27.949  18.038  16.205  1.00  0.00     0.151 A 
ATOM     29  C   UNL     1      30.295  18.266  16.433  1.00  0.00     0.043 A 
ATOM     30  C   UNL     1      29.172  18.289  15.627  1.00  0.00     0.141 A 
ATOM     31  F   UNL     1      29.244  18.565  14.314  1.00  0.00    -0.205 F 
ENDBRANCH  22  25
ENDBRANCH   3  21
TORSDOF 3
ENDMDL
MODEL 20
REMARK VINA RESULT:    -6.821      3.558      6.420
REMARK INTER + INTRA:          -8.278
REMARK INTER:                  -9.972
REMARK INTRA:                   1.694
REMARK UNBOUND:                -0.261
REMARK SMILES CN1C(N)=N[C@](C)(c2cc(NC(=O)c3ccc(F)cn3)ccc2F)CS1(=O)=O
REMARK SMILES IDX 8 1 9 2 10 3 21 4 22 5 23 6 24 7 6 8 25 9 5 10 26 11 3 12
REMARK SMILES IDX 27 13 2 14 28 15 4 16 7 17 1 18 11 21 12 22 13 23 14 25
REMARK SMILES IDX 20 26 15 27 19 28 16 29 17 30 18 31
REMARK H PARENT 4 19 4 20 11 24
ROOT
ATOM      1  C   UNL     1      26.533  12.391  21.427  1.00  0.00     0.018 A 
ATOM      2  C   UNL     1      26.912  13.275  22.435  1.00  0.00     0.035 A 
ATOM      3  C   UNL     1      28.152  13.226  23.031  1.00  0.00     0.042 A 
ATOM      4  C   UNL     1      29.075  12.259  22.654  1.00  0.00     0.029 A 
ATOM      5  C   UNL     1      28.718  11.375  21.651  1.00  0.00     0.042 A 
ATOM      6  C   UNL     1      27.482  11.457  21.040  1.00  0.00     0.129 A 
ATOM      7  F   UNL     1      27.167  10.596  20.039  1.00  0.00    -0.207 F 
ENDROOT
BRANCH   1   8
ATOM      8  C   UNL     1      25.157  12.473  20.786  1.00  0.00     0.105 C 
ATOM      9  C   UNL     1      24.375  13.728  21.107  1.00  0.00     0.195 C 
ATOM     10  N   UNL     1      24.347  11.290  21.071  1.00  0.00    -0.240 NA
ATOM     11  S   UNL     1      24.013  13.814  22.842  1.00  0.00     0.239 S 
ATOM     12  C   UNL     1      23.701  11.159  22.188  1.00  0.00     0.205 C 
ATOM     13  O   UNL     1      22.790  14.585  22.972  1.00  0.00    -0.206 OA
ATOM     14  N   UNL     1      23.617  12.171  23.170  1.00  0.00    -0.243 N 
ATOM     15  O   UNL     1      25.193  14.043  23.616  1.00  0.00    -0.206 OA
ATOM     16  N   UNL     1      23.011  10.020  22.505  1.00  0.00    -0.369 N 
ATOM     17  C   UNL     1      25.316  12.421  19.264  1.00  0.00     0.044 C 
ATOM     18  C   UNL     1      22.984  11.964  24.488  1.00  0.00     0.167 C 
ATOM     19  H   UNL     1      23.009   9.257  21.882  1.00  0.00     0.159 HD
ATOM     20  H   UNL     1      22.517   9.963  23.354  1.00  0.00     0.159 HD
ENDBRANCH   1   8
BRANCH   3  21
ATOM     21  N   UNL     1      28.405  14.171  24.034  1.00  0.00    -0.321 N 
ATOM     22  C   UNL     1      28.817  15.484  23.890  1.00  0.00     0.274 C 
ATOM     23  O   UNL     1      29.157  16.003  22.836  1.00  0.00    -0.267 OA
ATOM     24  H   UNL     1      28.272  13.861  24.959  1.00  0.00     0.170 HD
BRANCH  22  25
ATOM     25  C   UNL     1      28.793  16.294  25.132  1.00  0.00     0.128 A 
ATOM     26  N   UNL     1      28.873  17.619  24.977  1.00  0.00    -0.248 NA
ATOM     27  C   UNL     1      28.684  15.670  26.363  1.00  0.00     0.037 A 
ATOM     28  C   UNL     1      28.858  18.374  26.088  1.00  0.00     0.151 A 
ATOM     29  C   UNL     1      28.665  16.474  27.489  1.00  0.00     0.043 A 
ATOM     30  C   UNL     1      28.758  17.846  27.355  1.00  0.00     0.141 A 
ATOM     31  F   UNL     1      28.735  18.668  28.418  1.00  0.00    -0.205 F 
ENDBRANCH  22  25
ENDBRANCH   3  21
TORSDOF 3
ENDMDL
