MODEL 1
REMARK VINA RESULT:   -13.445      0.000      0.000
REMARK INTER + INTRA:         -16.362
REMARK INTER:                 -16.196
REMARK INTRA:                  -0.166
REMARK UNBOUND:                -0.166
REMARK SMILES CC1(C)CCC(C)(C)c2cc(NC(=O)c3ccc(C(=O)O)cc3)ccc21
REMARK SMILES IDX 15 1 16 2 23 3 17 4 22 5 18 6 13 7 14 8 12 9 11 11 10 12
REMARK SMILES IDX 24 13 9 14 25 15 6 16 26 17 5 18 2 19 4 20 7 21 8 22 1 23
REMARK SMILES IDX 3 24 19 25 20 26 21 27
REMARK H PARENT 12 10 21 28
ROOT
ATOM      1  C   UNL     1      40.727  23.158 102.001  1.00  0.00     0.040 A 
ATOM      2  C   UNL     1      39.827  22.563 102.860  1.00  0.00     0.015 A 
ATOM      3  C   UNL     1      40.653  24.495 101.667  1.00  0.00     0.015 A 
ATOM      4  C   UNL     1      38.806  23.338 103.409  1.00  0.00     0.016 A 
ATOM      5  C   UNL     1      39.632  25.270 102.217  1.00  0.00     0.016 A 
ATOM      6  C   UNL     1      38.709  24.691 103.087  1.00  0.00     0.059 A 
ENDROOT
BRANCH   1   7
ATOM      7  C   UNL     1      41.815  22.332 101.417  1.00  0.00     0.255 C 
ATOM      8  O   UNL     1      41.691  21.112 101.460  1.00  0.00    -0.269 OA
ATOM      9  N   UNL     1      42.874  23.050 100.846  1.00  0.00    -0.322 N 
ATOM     10  H   UNL     1      42.865  24.062 100.923  1.00  0.00     0.170 HD
BRANCH   9  11
ATOM     11  C   UNL     1      44.008  22.546 100.208  1.00  0.00     0.041 A 
ATOM     12  C   UNL     1      43.937  21.351  99.495  1.00  0.00     0.030 A 
ATOM     13  C   UNL     1      45.210  23.229 100.284  1.00  0.00     0.026 A 
ATOM     14  C   UNL     1      45.066  20.806  98.842  1.00  0.00    -0.037 A 
ATOM     15  C   UNL     1      46.334  22.724  99.633  1.00  0.00     0.007 A 
ATOM     16  C   UNL     1      44.919  19.482  98.079  1.00  0.00    -0.010 C 
ATOM     17  C   UNL     1      46.286  21.525  98.886  1.00  0.00    -0.038 A 
ATOM     18  C   UNL     1      46.294  18.875  97.724  1.00  0.00     0.012 C 
ATOM     19  C   UNL     1      47.559  21.028  98.189  1.00  0.00    -0.010 C 
ATOM     20  C   UNL     1      47.250  19.915  97.165  1.00  0.00     0.012 C 
ATOM     21  C   UNL     1      44.110  19.742  96.788  1.00  0.00     0.016 C 
ATOM     22  C   UNL     1      44.173  18.415  98.914  1.00  0.00     0.016 C 
ATOM     23  C   UNL     1      48.535  20.497  99.262  1.00  0.00     0.016 C 
ATOM     24  C   UNL     1      48.267  22.159  97.405  1.00  0.00     0.016 C 
ENDBRANCH   9  11
ENDBRANCH   1   7
BRANCH   6  25
ATOM     25  C   UNL     1      37.645  25.501 103.660  1.00  0.00     0.335 C 
ATOM     26  O   UNL     1      36.555  25.074 104.057  1.00  0.00    -0.246 OA
BRANCH  25  27
ATOM     27  O   UNL     1      37.970  26.821 103.723  1.00  0.00    -0.478 OA
ATOM     28  H   UNL     1      38.321  27.152 102.868  1.00  0.00     0.297 HD
ENDBRANCH  25  27
ENDBRANCH   6  25
TORSDOF 4
ENDMDL
MODEL 2
REMARK VINA RESULT:   -13.125      0.208      0.659
REMARK INTER + INTRA:         -15.976
REMARK INTER:                 -15.689
REMARK INTRA:                  -0.288
REMARK UNBOUND:                -0.166
REMARK SMILES CC1(C)CCC(C)(C)c2cc(NC(=O)c3ccc(C(=O)O)cc3)ccc21
REMARK SMILES IDX 15 1 16 2 23 3 17 4 22 5 18 6 13 7 14 8 12 9 11 11 10 12
REMARK SMILES IDX 24 13 9 14 25 15 6 16 26 17 5 18 2 19 4 20 7 21 8 22 1 23
REMARK SMILES IDX 3 24 19 25 20 26 21 27
REMARK H PARENT 12 10 21 28
ROOT
ATOM      1  C   UNL     1      40.830  23.178 101.993  1.00  0.00     0.040 A 
ATOM      2  C   UNL     1      39.812  22.548 102.678  1.00  0.00     0.015 A 
ATOM      3  C   UNL     1      40.834  24.538 101.765  1.00  0.00     0.015 A 
ATOM      4  C   UNL     1      38.749  23.314 103.157  1.00  0.00     0.016 A 
ATOM      5  C   UNL     1      39.772  25.304 102.245  1.00  0.00     0.016 A 
ATOM      6  C   UNL     1      38.729  24.691 102.941  1.00  0.00     0.059 A 
ENDROOT
BRANCH   1   7
ATOM      7  C   UNL     1      41.962  22.361 101.482  1.00  0.00     0.255 C 
ATOM      8  O   UNL     1      41.941  21.155 101.701  1.00  0.00    -0.269 OA
ATOM      9  N   UNL     1      42.940  23.069 100.770  1.00  0.00    -0.322 N 
ATOM     10  H   UNL     1      42.850  24.079 100.705  1.00  0.00     0.170 HD
BRANCH   9  11
ATOM     11  C   UNL     1      44.090  22.568 100.160  1.00  0.00     0.041 A 
ATOM     12  C   UNL     1      44.027  21.400  99.402  1.00  0.00     0.030 A 
ATOM     13  C   UNL     1      45.299  23.226 100.308  1.00  0.00     0.026 A 
ATOM     14  C   UNL     1      45.173  20.858  98.774  1.00  0.00    -0.037 A 
ATOM     15  C   UNL     1      46.440  22.724  99.684  1.00  0.00     0.007 A 
ATOM     16  C   UNL     1      45.034  19.566  97.958  1.00  0.00    -0.010 C 
ATOM     17  C   UNL     1      46.401  21.553  98.893  1.00  0.00    -0.038 A 
ATOM     18  C   UNL     1      46.411  18.946  97.636  1.00  0.00     0.012 C 
ATOM     19  C   UNL     1      47.693  21.058  98.230  1.00  0.00    -0.010 C 
ATOM     20  C   UNL     1      47.406  19.988  97.153  1.00  0.00     0.012 C 
ATOM     21  C   UNL     1      44.282  19.887  96.647  1.00  0.00     0.016 C 
ATOM     22  C   UNL     1      44.236  18.484  98.724  1.00  0.00     0.016 C 
ATOM     23  C   UNL     1      48.616  20.471  99.320  1.00  0.00     0.016 C 
ATOM     24  C   UNL     1      48.451  22.203  97.516  1.00  0.00     0.016 C 
ENDBRANCH   9  11
ENDBRANCH   1   7
BRANCH   6  25
ATOM     25  C   UNL     1      37.622  25.491 103.441  1.00  0.00     0.335 C 
ATOM     26  O   UNL     1      37.623  26.721 103.559  1.00  0.00    -0.246 OA
BRANCH  25  27
ATOM     27  O   UNL     1      36.543  24.732 103.779  1.00  0.00    -0.478 OA
ATOM     28  H   UNL     1      35.722  25.268 103.831  1.00  0.00     0.297 HD
ENDBRANCH  25  27
ENDBRANCH   6  25
TORSDOF 4
ENDMDL
MODEL 3
REMARK VINA RESULT:   -12.485      1.265      2.773
REMARK INTER + INTRA:         -15.205
REMARK INTER:                 -15.110
REMARK INTRA:                  -0.095
REMARK UNBOUND:                -0.166
REMARK SMILES CC1(C)CCC(C)(C)c2cc(NC(=O)c3ccc(C(=O)O)cc3)ccc21
REMARK SMILES IDX 15 1 16 2 23 3 17 4 22 5 18 6 13 7 14 8 12 9 11 11 10 12
REMARK SMILES IDX 24 13 9 14 25 15 6 16 26 17 5 18 2 19 4 20 7 21 8 22 1 23
REMARK SMILES IDX 3 24 19 25 20 26 21 27
REMARK H PARENT 12 10 21 28
ROOT
ATOM      1  C   UNL     1      40.915  23.475 101.877  1.00  0.00     0.040 A 
ATOM      2  C   UNL     1      40.117  22.781 102.762  1.00  0.00     0.015 A 
ATOM      3  C   UNL     1      40.649  24.778 101.510  1.00  0.00     0.015 A 
ATOM      4  C   UNL     1      39.001  23.419 103.304  1.00  0.00     0.016 A 
ATOM      5  C   UNL     1      39.534  25.416 102.054  1.00  0.00     0.016 A 
ATOM      6  C   UNL     1      38.710  24.736 102.950  1.00  0.00     0.059 A 
ENDROOT
BRANCH   1   7
ATOM      7  C   UNL     1      42.104  22.796 101.298  1.00  0.00     0.255 C 
ATOM      8  O   UNL     1      43.194  23.341 101.430  1.00  0.00    -0.269 OA
ATOM      9  N   UNL     1      41.848  21.568 100.673  1.00  0.00    -0.322 N 
ATOM     10  H   UNL     1      40.883  21.258 100.599  1.00  0.00     0.170 HD
BRANCH   9  11
ATOM     11  C   UNL     1      42.763  20.704 100.070  1.00  0.00     0.041 A 
ATOM     12  C   UNL     1      43.945  21.205  99.527  1.00  0.00     0.030 A 
ATOM     13  C   UNL     1      42.499  19.346 100.005  1.00  0.00     0.026 A 
ATOM     14  C   UNL     1      44.892  20.362  98.902  1.00  0.00    -0.037 A 
ATOM     15  C   UNL     1      43.425  18.491  99.412  1.00  0.00     0.007 A 
ATOM     16  C   UNL     1      46.170  20.981  98.320  1.00  0.00    -0.010 C 
ATOM     17  C   UNL     1      44.641  18.968  98.871  1.00  0.00    -0.038 A 
ATOM     18  C   UNL     1      46.912  19.989  97.397  1.00  0.00     0.012 C 
ATOM     19  C   UNL     1      45.618  17.971  98.237  1.00  0.00    -0.010 C 
ATOM     20  C   UNL     1      47.009  18.603  98.010  1.00  0.00     0.012 C 
ATOM     21  C   UNL     1      47.091  21.403  99.486  1.00  0.00     0.016 C 
ATOM     22  C   UNL     1      45.866  22.232  97.463  1.00  0.00     0.016 C 
ATOM     23  C   UNL     1      45.033  17.492  96.890  1.00  0.00     0.016 C 
ATOM     24  C   UNL     1      45.843  16.732  99.137  1.00  0.00     0.016 C 
ENDBRANCH   9  11
ENDBRANCH   1   7
BRANCH   6  25
ATOM     25  C   UNL     1      37.547  25.401 103.517  1.00  0.00     0.335 C 
ATOM     26  O   UNL     1      36.546  24.834 103.967  1.00  0.00    -0.246 OA
BRANCH  25  27
ATOM     27  O   UNL     1      37.667  26.757 103.507  1.00  0.00    -0.478 OA
ATOM     28  H   UNL     1      36.873  27.197 103.882  1.00  0.00     0.297 HD
ENDBRANCH  25  27
ENDBRANCH   6  25
TORSDOF 4
ENDMDL
MODEL 4
REMARK VINA RESULT:   -12.459      1.747      2.993
REMARK INTER + INTRA:         -15.174
REMARK INTER:                 -14.742
REMARK INTRA:                  -0.433
REMARK UNBOUND:                -0.166
REMARK SMILES CC1(C)CCC(C)(C)c2cc(NC(=O)c3ccc(C(=O)O)cc3)ccc21
REMARK SMILES IDX 15 1 16 2 23 3 17 4 22 5 18 6 13 7 14 8 12 9 11 11 10 12
REMARK SMILES IDX 24 13 9 14 25 15 6 16 26 17 5 18 2 19 4 20 7 21 8 22 1 23
REMARK SMILES IDX 3 24 19 25 20 26 21 27
REMARK H PARENT 12 10 21 28
ROOT
ATOM      1  C   UNL     1      41.071  23.355 101.645  1.00  0.00     0.040 A 
ATOM      2  C   UNL     1      40.309  22.863 102.684  1.00  0.00     0.015 A 
ATOM      3  C   UNL     1      40.868  24.612 101.113  1.00  0.00     0.015 A 
ATOM      4  C   UNL     1      39.298  23.663 103.216  1.00  0.00     0.016 A 
ATOM      5  C   UNL     1      39.857  25.412 101.645  1.00  0.00     0.016 A 
ATOM      6  C   UNL     1      39.072  24.937 102.696  1.00  0.00     0.059 A 
ENDROOT
BRANCH   1   7
ATOM      7  C   UNL     1      42.148  22.502 101.079  1.00  0.00     0.255 C 
ATOM      8  O   UNL     1      43.302  22.906 101.168  1.00  0.00    -0.269 OA
ATOM      9  N   UNL     1      41.721  21.292 100.516  1.00  0.00    -0.322 N 
ATOM     10  H   UNL     1      40.724  21.107 100.473  1.00  0.00     0.170 HD
BRANCH   9  11
ATOM     11  C   UNL     1      42.503  20.290  99.938  1.00  0.00     0.041 A 
ATOM     12  C   UNL     1      43.162  20.525  98.733  1.00  0.00     0.030 A 
ATOM     13  C   UNL     1      42.625  19.058 100.558  1.00  0.00     0.026 A 
ATOM     14  C   UNL     1      43.957  19.533  98.114  1.00  0.00    -0.037 A 
ATOM     15  C   UNL     1      43.418  18.070  99.980  1.00  0.00     0.007 A 
ATOM     16  C   UNL     1      44.650  19.857  96.784  1.00  0.00    -0.010 C 
ATOM     17  C   UNL     1      44.114  18.287  98.769  1.00  0.00    -0.038 A 
ATOM     18  C   UNL     1      45.184  18.582  96.096  1.00  0.00     0.012 C 
ATOM     19  C   UNL     1      44.974  17.157  98.189  1.00  0.00    -0.010 C 
ATOM     20  C   UNL     1      45.909  17.669  97.071  1.00  0.00     0.012 C 
ATOM     21  C   UNL     1      45.815  20.834  97.058  1.00  0.00     0.016 C 
ATOM     22  C   UNL     1      43.683  20.524  95.777  1.00  0.00     0.016 C 
ATOM     23  C   UNL     1      44.041  16.060  97.631  1.00  0.00     0.016 C 
ATOM     24  C   UNL     1      45.887  16.518  99.263  1.00  0.00     0.016 C 
ENDBRANCH   9  11
ENDBRANCH   1   7
BRANCH   6  25
ATOM     25  C   UNL     1      38.018  25.773 103.251  1.00  0.00     0.335 C 
ATOM     26  O   UNL     1      36.928  25.367 103.668  1.00  0.00    -0.246 OA
BRANCH  25  27
ATOM     27  O   UNL     1      38.355  27.091 103.270  1.00  0.00    -0.478 OA
ATOM     28  H   UNL     1      39.328  27.220 103.287  1.00  0.00     0.297 HD
ENDBRANCH  25  27
ENDBRANCH   6  25
TORSDOF 4
ENDMDL
MODEL 5
REMARK VINA RESULT:   -12.405      0.484      0.788
REMARK INTER + INTRA:         -15.108
REMARK INTER:                 -15.104
REMARK INTRA:                  -0.005
REMARK UNBOUND:                -0.166
REMARK SMILES CC1(C)CCC(C)(C)c2cc(NC(=O)c3ccc(C(=O)O)cc3)ccc21
REMARK SMILES IDX 15 1 16 2 23 3 17 4 22 5 18 6 13 7 14 8 12 9 11 11 10 12
REMARK SMILES IDX 24 13 9 14 25 15 6 16 26 17 5 18 2 19 4 20 7 21 8 22 1 23
REMARK SMILES IDX 3 24 19 25 20 26 21 27
REMARK H PARENT 12 10 21 28
ROOT
ATOM      1  C   UNL     1      40.586  22.741 101.732  1.00  0.00     0.040 A 
ATOM      2  C   UNL     1      39.877  22.104 102.729  1.00  0.00     0.015 A 
ATOM      3  C   UNL     1      40.333  24.047 101.367  1.00  0.00     0.015 A 
ATOM      4  C   UNL     1      38.868  22.804 103.390  1.00  0.00     0.016 A 
ATOM      5  C   UNL     1      39.325  24.747 102.029  1.00  0.00     0.016 A 
ATOM      6  C   UNL     1      38.592  24.126 103.040  1.00  0.00     0.059 A 
ENDROOT
BRANCH   1   7
ATOM      7  C   UNL     1      41.660  21.994 101.027  1.00  0.00     0.255 C 
ATOM      8  O   UNL     1      41.411  20.853 100.653  1.00  0.00    -0.269 OA
ATOM      9  N   UNL     1      42.858  22.698 100.842  1.00  0.00    -0.322 N 
ATOM     10  H   UNL     1      42.938  23.626 101.247  1.00  0.00     0.170 HD
BRANCH   9  11
ATOM     11  C   UNL     1      44.018  22.264 100.199  1.00  0.00     0.041 A 
ATOM     12  C   UNL     1      44.006  21.087  99.453  1.00  0.00     0.030 A 
ATOM     13  C   UNL     1      45.187  22.999 100.302  1.00  0.00     0.026 A 
ATOM     14  C   UNL     1      45.163  20.613  98.793  1.00  0.00    -0.037 A 
ATOM     15  C   UNL     1      46.337  22.564  99.646  1.00  0.00     0.007 A 
ATOM     16  C   UNL     1      45.081  19.305  97.993  1.00  0.00    -0.010 C 
ATOM     17  C   UNL     1      46.348  21.385  98.866  1.00  0.00    -0.038 A 
ATOM     18  C   UNL     1      46.485  18.771  97.632  1.00  0.00     0.012 C 
ATOM     19  C   UNL     1      47.647  20.967  98.165  1.00  0.00    -0.010 C 
ATOM     20  C   UNL     1      47.395  19.869  97.108  1.00  0.00     0.012 C 
ATOM     21  C   UNL     1      44.269  19.565  96.704  1.00  0.00     0.016 C 
ATOM     22  C   UNL     1      44.379  18.183  98.792  1.00  0.00     0.016 C 
ATOM     23  C   UNL     1      48.640  20.451  99.230  1.00  0.00     0.016 C 
ATOM     24  C   UNL     1      48.307  22.150  97.418  1.00  0.00     0.016 C 
ENDBRANCH   9  11
ENDBRANCH   1   7
BRANCH   6  25
ATOM     25  C   UNL     1      37.541  24.857 103.731  1.00  0.00     0.335 C 
ATOM     26  O   UNL     1      37.513  26.082 103.900  1.00  0.00    -0.246 OA
BRANCH  25  27
ATOM     27  O   UNL     1      36.554  24.041 104.190  1.00  0.00    -0.478 OA
ATOM     28  H   UNL     1      35.749  24.091 103.630  1.00  0.00     0.297 HD
ENDBRANCH  25  27
ENDBRANCH   6  25
TORSDOF 4
ENDMDL
MODEL 6
REMARK VINA RESULT:   -12.142      1.043      2.581
REMARK INTER + INTRA:         -14.792
REMARK INTER:                 -14.744
REMARK INTRA:                  -0.047
REMARK UNBOUND:                -0.166
REMARK SMILES CC1(C)CCC(C)(C)c2cc(NC(=O)c3ccc(C(=O)O)cc3)ccc21
REMARK SMILES IDX 15 1 16 2 23 3 17 4 22 5 18 6 13 7 14 8 12 9 11 11 10 12
REMARK SMILES IDX 24 13 9 14 25 15 6 16 26 17 5 18 2 19 4 20 7 21 8 22 1 23
REMARK SMILES IDX 3 24 19 25 20 26 21 27
REMARK H PARENT 12 10 21 28
ROOT
ATOM      1  C   UNL     1      40.607  22.696 101.745  1.00  0.00     0.040 A 
ATOM      2  C   UNL     1      39.661  22.383 102.698  1.00  0.00     0.015 A 
ATOM      3  C   UNL     1      40.799  23.985 101.291  1.00  0.00     0.015 A 
ATOM      4  C   UNL     1      38.870  23.405 103.222  1.00  0.00     0.016 A 
ATOM      5  C   UNL     1      40.008  25.007 101.816  1.00  0.00     0.016 A 
ATOM      6  C   UNL     1      39.043  24.717 102.781  1.00  0.00     0.059 A 
ENDROOT
BRANCH   1   7
ATOM      7  C   UNL     1      41.449  21.606 101.186  1.00  0.00     0.255 C 
ATOM      8  O   UNL     1      41.136  20.450 101.450  1.00  0.00    -0.269 OA
ATOM      9  N   UNL     1      42.518  22.025 100.383  1.00  0.00    -0.322 N 
ATOM     10  H   UNL     1      42.685  23.022 100.287  1.00  0.00     0.170 HD
BRANCH   9  11
ATOM     11  C   UNL     1      43.451  21.233  99.713  1.00  0.00     0.041 A 
ATOM     12  C   UNL     1      44.625  21.799  99.220  1.00  0.00     0.030 A 
ATOM     13  C   UNL     1      43.212  19.881  99.531  1.00  0.00     0.026 A 
ATOM     14  C   UNL     1      45.590  21.030  98.530  1.00  0.00    -0.037 A 
ATOM     15  C   UNL     1      44.156  19.096  98.872  1.00  0.00     0.007 A 
ATOM     16  C   UNL     1      46.858  21.719  98.009  1.00  0.00    -0.010 C 
ATOM     17  C   UNL     1      45.365  19.640  98.380  1.00  0.00    -0.038 A 
ATOM     18  C   UNL     1      47.621  20.824  97.009  1.00  0.00     0.012 C 
ATOM     19  C   UNL     1      46.363  18.718  97.668  1.00  0.00    -0.010 C 
ATOM     20  C   UNL     1      47.742  19.392  97.502  1.00  0.00     0.012 C 
ATOM     21  C   UNL     1      47.767  22.057  99.212  1.00  0.00     0.016 C 
ATOM     22  C   UNL     1      46.534  23.034  97.260  1.00  0.00     0.016 C 
ATOM     23  C   UNL     1      45.792  18.345  96.282  1.00  0.00     0.016 C 
ATOM     24  C   UNL     1      46.608  17.412  98.460  1.00  0.00     0.016 C 
ENDBRANCH   9  11
ENDBRANCH   1   7
BRANCH   6  25
ATOM     25  C   UNL     1      38.220  25.784 103.328  1.00  0.00     0.335 C 
ATOM     26  O   UNL     1      37.231  25.625 104.053  1.00  0.00    -0.246 OA
BRANCH  25  27
ATOM     27  O   UNL     1      38.653  27.019 102.956  1.00  0.00    -0.478 OA
ATOM     28  H   UNL     1      39.511  27.247 103.373  1.00  0.00     0.297 HD
ENDBRANCH  25  27
ENDBRANCH   6  25
TORSDOF 4
ENDMDL
