MODEL 1
REMARK VINA RESULT:    -9.525      0.000      0.000
REMARK INTER + INTRA:         -10.767
REMARK INTER:                 -11.196
REMARK INTRA:                   0.428
REMARK UNBOUND:                 0.428
REMARK SMILES CN1C(N)=N[C@](C)(c2cc(NC(=O)c3ccc(F)cn3)ccc2F)CS1(=O)=O
REMARK SMILES IDX 8 1 9 2 10 3 21 4 22 5 23 6 24 7 6 8 25 9 5 10 26 11 3 12
REMARK SMILES IDX 27 13 2 14 28 15 4 16 7 17 1 18 11 21 12 22 13 23 14 25
REMARK SMILES IDX 20 26 15 27 19 28 16 29 17 30 18 31
REMARK H PARENT 4 19 4 20 11 24
ROOT
ATOM      1  C   UNL     1      15.290   4.545  20.446  1.00  0.00     0.018 A 
ATOM      2  C   UNL     1      16.202   4.345  21.481  1.00  0.00     0.035 A 
ATOM      3  C   UNL     1      16.635   5.371  22.290  1.00  0.00     0.042 A 
ATOM      4  C   UNL     1      16.185   6.668  22.082  1.00  0.00     0.029 A 
ATOM      5  C   UNL     1      15.277   6.886  21.061  1.00  0.00     0.042 A 
ATOM      6  C   UNL     1      14.826   5.841  20.277  1.00  0.00     0.129 A 
ATOM      7  F   UNL     1      13.913   6.076  19.301  1.00  0.00    -0.207 F 
ENDROOT
BRANCH   1   8
ATOM      8  C   UNL     1      14.828   3.390  19.571  1.00  0.00     0.105 C 
ATOM      9  C   UNL     1      15.912   2.410  19.179  1.00  0.00     0.195 C 
ATOM     10  N   UNL     1      14.116   3.854  18.381  1.00  0.00    -0.240 NA
ATOM     11  S   UNL     1      17.142   3.204  18.176  1.00  0.00     0.239 S 
ATOM     12  C   UNL     1      14.749   4.261  17.324  1.00  0.00     0.205 C 
ATOM     13  O   UNL     1      17.718   2.172  17.332  1.00  0.00    -0.206 OA
ATOM     14  N   UNL     1      16.151   4.190  17.171  1.00  0.00    -0.243 N 
ATOM     15  O   UNL     1      17.909   4.147  18.929  1.00  0.00    -0.206 OA
ATOM     16  N   UNL     1      14.097   4.780  16.237  1.00  0.00    -0.369 N 
ATOM     17  C   UNL     1      13.757   2.597  20.324  1.00  0.00     0.044 C 
ATOM     18  C   UNL     1      16.865   4.770  16.016  1.00  0.00     0.167 C 
ATOM     19  H   UNL     1      13.117   4.870  16.248  1.00  0.00     0.159 HD
ATOM     20  H   UNL     1      14.608   5.062  15.444  1.00  0.00     0.159 HD
ENDBRANCH   1   8
BRANCH   3  21
ATOM     21  N   UNL     1      17.554   5.034  23.292  1.00  0.00    -0.321 N 
ATOM     22  C   UNL     1      18.888   5.390  23.386  1.00  0.00     0.274 C 
ATOM     23  O   UNL     1      19.526   5.967  22.515  1.00  0.00    -0.267 OA
ATOM     24  H   UNL     1      17.207   4.474  24.023  1.00  0.00     0.170 HD
BRANCH  22  25
ATOM     25  C   UNL     1      19.543   5.056  24.674  1.00  0.00     0.128 A 
ATOM     26  N   UNL     1      20.291   3.947  24.689  1.00  0.00    -0.248 NA
ATOM     27  C   UNL     1      19.371   5.882  25.771  1.00  0.00     0.037 A 
ATOM     28  C   UNL     1      20.891   3.622  25.845  1.00  0.00     0.151 A 
ATOM     29  C   UNL     1      20.007   5.523  26.947  1.00  0.00     0.043 A 
ATOM     30  C   UNL     1      20.775   4.376  26.991  1.00  0.00     0.141 A 
ATOM     31  F   UNL     1      21.419   3.993  28.107  1.00  0.00    -0.205 F 
ENDBRANCH  22  25
ENDBRANCH   3  21
TORSDOF 3
ENDMDL
MODEL 2
REMARK VINA RESULT:    -9.381      5.807      9.712
REMARK INTER + INTRA:         -10.598
REMARK INTER:                 -10.201
REMARK INTRA:                  -0.397
REMARK UNBOUND:                 0.428
REMARK SMILES CN1C(N)=N[C@](C)(c2cc(NC(=O)c3ccc(F)cn3)ccc2F)CS1(=O)=O
REMARK SMILES IDX 8 1 9 2 10 3 21 4 22 5 23 6 24 7 6 8 25 9 5 10 26 11 3 12
REMARK SMILES IDX 27 13 2 14 28 15 4 16 7 17 1 18 11 21 12 22 13 23 14 25
REMARK SMILES IDX 20 26 15 27 19 28 16 29 17 30 18 31
REMARK H PARENT 4 19 4 20 11 24
ROOT
ATOM      1  C   UNL     1      18.755  11.298  25.697  1.00  0.00     0.018 A 
ATOM      2  C   UNL     1      18.459  10.417  24.658  1.00  0.00     0.035 A 
ATOM      3  C   UNL     1      17.324  10.540  23.888  1.00  0.00     0.042 A 
ATOM      4  C   UNL     1      16.408  11.554  24.143  1.00  0.00     0.029 A 
ATOM      5  C   UNL     1      16.687  12.440  25.168  1.00  0.00     0.042 A 
ATOM      6  C   UNL     1      17.846  12.323  25.911  1.00  0.00     0.129 A 
ATOM      7  F   UNL     1      18.110  13.223  26.893  1.00  0.00    -0.207 F 
ENDROOT
BRANCH   1   8
ATOM      8  C   UNL     1      20.019  11.138  26.527  1.00  0.00     0.105 C 
ATOM      9  C   UNL     1      20.890  12.371  26.612  1.00  0.00     0.195 C 
ATOM     10  N   UNL     1      20.815   9.989  26.097  1.00  0.00    -0.240 NA
ATOM     11  S   UNL     1      21.517  12.808  25.010  1.00  0.00     0.239 S 
ATOM     12  C   UNL     1      21.619  10.059  25.081  1.00  0.00     0.205 C 
ATOM     13  O   UNL     1      22.776  13.497  25.232  1.00  0.00    -0.206 OA
ATOM     14  N   UNL     1      21.893  11.252  24.376  1.00  0.00    -0.243 N 
ATOM     15  O   UNL     1      20.480  13.286  24.150  1.00  0.00    -0.206 OA
ATOM     16  N   UNL     1      22.303   8.969  24.614  1.00  0.00    -0.369 N 
ATOM     17  C   UNL     1      19.626  10.766  27.959  1.00  0.00     0.044 C 
ATOM     18  C   UNL     1      22.712  11.292  23.149  1.00  0.00     0.167 C 
ATOM     19  H   UNL     1      22.179   8.090  25.041  1.00  0.00     0.159 HD
ATOM     20  H   UNL     1      22.919   9.063  23.852  1.00  0.00     0.159 HD
ENDBRANCH   1   8
BRANCH   3  21
ATOM     21  N   UNL     1      17.145   9.587  22.877  1.00  0.00    -0.321 N 
ATOM     22  C   UNL     1      16.397   8.424  22.919  1.00  0.00     0.274 C 
ATOM     23  O   UNL     1      15.860   7.967  23.920  1.00  0.00    -0.267 OA
ATOM     24  H   UNL     1      17.610   9.769  22.029  1.00  0.00     0.170 HD
BRANCH  22  25
ATOM     25  C   UNL     1      16.231   7.730  21.619  1.00  0.00     0.128 A 
ATOM     26  N   UNL     1      17.351   7.489  20.929  1.00  0.00    -0.248 NA
ATOM     27  C   UNL     1      14.969   7.362  21.188  1.00  0.00     0.037 A 
ATOM     28  C   UNL     1      17.226   6.865  19.746  1.00  0.00     0.151 A 
ATOM     29  C   UNL     1      14.873   6.716  19.968  1.00  0.00     0.043 A 
ATOM     30  C   UNL     1      16.014   6.466  19.230  1.00  0.00     0.141 A 
ATOM     31  F   UNL     1      15.971   5.833  18.045  1.00  0.00    -0.205 F 
ENDBRANCH  22  25
ENDBRANCH   3  21
TORSDOF 3
ENDMDL
MODEL 3
REMARK VINA RESULT:    -9.210      2.050      2.616
REMARK INTER + INTRA:         -10.396
REMARK INTER:                 -10.953
REMARK INTRA:                   0.556
REMARK UNBOUND:                 0.428
REMARK SMILES CN1C(N)=N[C@](C)(c2cc(NC(=O)c3ccc(F)cn3)ccc2F)CS1(=O)=O
REMARK SMILES IDX 8 1 9 2 10 3 21 4 22 5 23 6 24 7 6 8 25 9 5 10 26 11 3 12
REMARK SMILES IDX 27 13 2 14 28 15 4 16 7 17 1 18 11 21 12 22 13 23 14 25
REMARK SMILES IDX 20 26 15 27 19 28 16 29 17 30 18 31
REMARK H PARENT 4 19 4 20 11 24
ROOT
ATOM      1  C   UNL     1      16.416   5.818  20.823  1.00  0.00     0.018 A 
ATOM      2  C   UNL     1      17.236   5.479  21.898  1.00  0.00     0.035 A 
ATOM      3  C   UNL     1      18.609   5.489  21.808  1.00  0.00     0.042 A 
ATOM      4  C   UNL     1      19.233   5.821  20.612  1.00  0.00     0.029 A 
ATOM      5  C   UNL     1      18.435   6.164  19.535  1.00  0.00     0.042 A 
ATOM      6  C   UNL     1      17.059   6.181  19.650  1.00  0.00     0.129 A 
ATOM      7  F   UNL     1      16.299   6.549  18.586  1.00  0.00    -0.207 F 
ENDROOT
BRANCH   1   8
ATOM      8  C   UNL     1      14.901   5.801  20.955  1.00  0.00     0.105 C 
ATOM      9  C   UNL     1      14.332   4.583  21.650  1.00  0.00     0.195 C 
ATOM     10  N   UNL     1      14.235   6.001  19.669  1.00  0.00    -0.240 NA
ATOM     11  S   UNL     1      14.668   3.113  20.714  1.00  0.00     0.239 S 
ATOM     12  C   UNL     1      14.066   5.027  18.830  1.00  0.00     0.205 C 
ATOM     13  O   UNL     1      13.607   2.172  21.026  1.00  0.00    -0.206 OA
ATOM     14  N   UNL     1      14.390   3.681  19.112  1.00  0.00    -0.243 N 
ATOM     15  O   UNL     1      16.060   2.788  20.725  1.00  0.00    -0.206 OA
ATOM     16  N   UNL     1      13.525   5.218  17.587  1.00  0.00    -0.369 N 
ATOM     17  C   UNL     1      14.461   7.025  21.764  1.00  0.00     0.044 C 
ATOM     18  C   UNL     1      14.308   2.605  18.105  1.00  0.00     0.167 C 
ATOM     19  H   UNL     1      13.265   6.123  17.297  1.00  0.00     0.159 HD
ATOM     20  H   UNL     1      13.394   4.452  16.983  1.00  0.00     0.159 HD
ENDBRANCH   1   8
BRANCH   3  21
ATOM     21  N   UNL     1      19.317   5.125  22.961  1.00  0.00    -0.321 N 
ATOM     22  C   UNL     1      19.313   5.742  24.199  1.00  0.00     0.274 C 
ATOM     23  O   UNL     1      18.772   6.810  24.452  1.00  0.00    -0.267 OA
ATOM     24  H   UNL     1      19.890   4.328  22.879  1.00  0.00     0.170 HD
BRANCH  22  25
ATOM     25  C   UNL     1      20.002   4.996  25.280  1.00  0.00     0.128 A 
ATOM     26  N   UNL     1      20.653   3.887  24.914  1.00  0.00    -0.248 NA
ATOM     27  C   UNL     1      19.955   5.465  26.582  1.00  0.00     0.037 A 
ATOM     28  C   UNL     1      21.282   3.193  25.877  1.00  0.00     0.151 A 
ATOM     29  C   UNL     1      20.617   4.731  27.550  1.00  0.00     0.043 A 
ATOM     30  C   UNL     1      21.287   3.575  27.199  1.00  0.00     0.141 A 
ATOM     31  F   UNL     1      21.951   2.835  28.103  1.00  0.00    -0.205 F 
ENDBRANCH  22  25
ENDBRANCH   3  21
TORSDOF 3
ENDMDL
MODEL 4
REMARK VINA RESULT:    -9.100      7.249     10.195
REMARK INTER + INTRA:         -10.267
REMARK INTER:                 -10.074
REMARK INTRA:                  -0.193
REMARK UNBOUND:                 0.428
REMARK SMILES CN1C(N)=N[C@](C)(c2cc(NC(=O)c3ccc(F)cn3)ccc2F)CS1(=O)=O
REMARK SMILES IDX 8 1 9 2 10 3 21 4 22 5 23 6 24 7 6 8 25 9 5 10 26 11 3 12
REMARK SMILES IDX 27 13 2 14 28 15 4 16 7 17 1 18 11 21 12 22 13 23 14 25
REMARK SMILES IDX 20 26 15 27 19 28 16 29 17 30 18 31
REMARK H PARENT 4 19 4 20 11 24
ROOT
ATOM      1  C   UNL     1      19.240  11.728  25.950  1.00  0.00     0.018 A 
ATOM      2  C   UNL     1      19.413  10.382  26.268  1.00  0.00     0.035 A 
ATOM      3  C   UNL     1      20.353   9.593  25.645  1.00  0.00     0.042 A 
ATOM      4  C   UNL     1      21.161  10.118  24.645  1.00  0.00     0.029 A 
ATOM      5  C   UNL     1      21.006  11.453  24.318  1.00  0.00     0.042 A 
ATOM      6  C   UNL     1      20.080  12.241  24.973  1.00  0.00     0.129 A 
ATOM      7  F   UNL     1      19.968  13.556  24.654  1.00  0.00    -0.207 F 
ENDROOT
BRANCH   1   8
ATOM      8  C   UNL     1      18.194  12.575  26.658  1.00  0.00     0.105 C 
ATOM      9  C   UNL     1      18.641  13.973  27.021  1.00  0.00     0.195 C 
ATOM     10  N   UNL     1      17.647  11.901  27.835  1.00  0.00    -0.240 NA
ATOM     11  S   UNL     1      19.973  13.921  28.193  1.00  0.00     0.239 S 
ATOM     12  C   UNL     1      18.269  11.907  28.974  1.00  0.00     0.205 C 
ATOM     13  O   UNL     1      19.897  15.152  28.961  1.00  0.00    -0.206 OA
ATOM     14  N   UNL     1      19.447  12.646  29.222  1.00  0.00    -0.243 N 
ATOM     15  O   UNL     1      21.173  13.414  27.605  1.00  0.00    -0.206 OA
ATOM     16  N   UNL     1      17.813  11.207  30.058  1.00  0.00    -0.369 N 
ATOM     17  C   UNL     1      16.972  12.716  25.746  1.00  0.00     0.044 C 
ATOM     18  C   UNL     1      20.209  12.545  30.482  1.00  0.00     0.167 C 
ATOM     19  H   UNL     1      16.997  10.661  29.984  1.00  0.00     0.159 HD
ATOM     20  H   UNL     1      18.301  11.249  30.913  1.00  0.00     0.159 HD
ENDBRANCH   1   8
BRANCH   3  21
ATOM     21  N   UNL     1      20.422   8.255  26.057  1.00  0.00    -0.321 N 
ATOM     22  C   UNL     1      19.663   7.184  25.620  1.00  0.00     0.274 C 
ATOM     23  O   UNL     1      18.696   7.264  24.874  1.00  0.00    -0.267 OA
ATOM     24  H   UNL     1      21.097   8.052  26.744  1.00  0.00     0.170 HD
BRANCH  22  25
ATOM     25  C   UNL     1      20.116   5.853  26.092  1.00  0.00     0.128 A 
ATOM     26  N   UNL     1      20.577   5.017  25.155  1.00  0.00    -0.248 NA
ATOM     27  C   UNL     1      20.057   5.540  27.439  1.00  0.00     0.037 A 
ATOM     28  C   UNL     1      20.989   3.804  25.558  1.00  0.00     0.151 A 
ATOM     29  C   UNL     1      20.495   4.285  27.823  1.00  0.00     0.043 A 
ATOM     30  C   UNL     1      20.964   3.399  26.873  1.00  0.00     0.141 A 
ATOM     31  F   UNL     1      21.408   2.173  27.200  1.00  0.00    -0.205 F 
ENDBRANCH  22  25
ENDBRANCH   3  21
TORSDOF 3
ENDMDL
MODEL 5
REMARK VINA RESULT:    -9.043      9.948     11.769
REMARK INTER + INTRA:         -10.200
REMARK INTER:                  -9.871
REMARK INTRA:                  -0.329
REMARK UNBOUND:                 0.428
REMARK SMILES CN1C(N)=N[C@](C)(c2cc(NC(=O)c3ccc(F)cn3)ccc2F)CS1(=O)=O
REMARK SMILES IDX 8 1 9 2 10 3 21 4 22 5 23 6 24 7 6 8 25 9 5 10 26 11 3 12
REMARK SMILES IDX 27 13 2 14 28 15 4 16 7 17 1 18 11 21 12 22 13 23 14 25
REMARK SMILES IDX 20 26 15 27 19 28 16 29 17 30 18 31
REMARK H PARENT 4 19 4 20 11 24
ROOT
ATOM      1  C   UNL     1      24.242  11.795  20.441  1.00  0.00     0.018 A 
ATOM      2  C   UNL     1      24.053  12.234  21.751  1.00  0.00     0.035 A 
ATOM      3  C   UNL     1      23.455  11.450  22.711  1.00  0.00     0.042 A 
ATOM      4  C   UNL     1      22.990  10.180  22.393  1.00  0.00     0.029 A 
ATOM      5  C   UNL     1      23.172   9.726  21.098  1.00  0.00     0.042 A 
ATOM      6  C   UNL     1      23.803  10.512  20.154  1.00  0.00     0.129 A 
ATOM      7  F   UNL     1      23.995  10.032  18.898  1.00  0.00    -0.207 F 
ENDROOT
BRANCH   1   8
ATOM      8  C   UNL     1      24.909  12.684  19.404  1.00  0.00     0.105 C 
ATOM      9  C   UNL     1      26.146  12.099  18.759  1.00  0.00     0.195 C 
ATOM     10  N   UNL     1      25.201  14.017  19.929  1.00  0.00    -0.240 NA
ATOM     11  S   UNL     1      27.427  11.858  19.963  1.00  0.00     0.239 S 
ATOM     12  C   UNL     1      26.253  14.250  20.650  1.00  0.00     0.205 C 
ATOM     13  O   UNL     1      28.688  11.950  19.249  1.00  0.00    -0.206 OA
ATOM     14  N   UNL     1      27.264  13.295  20.897  1.00  0.00    -0.243 N 
ATOM     15  O   UNL     1      27.098  10.814  20.882  1.00  0.00    -0.206 OA
ATOM     16  N   UNL     1      26.492  15.472  21.222  1.00  0.00    -0.369 N 
ATOM     17  C   UNL     1      23.909  12.970  18.280  1.00  0.00     0.044 C 
ATOM     18  C   UNL     1      28.391  13.536  21.820  1.00  0.00     0.167 C 
ATOM     19  H   UNL     1      25.844  16.204  21.106  1.00  0.00     0.159 HD
ATOM     20  H   UNL     1      27.311  15.618  21.748  1.00  0.00     0.159 HD
ENDBRANCH   1   8
BRANCH   3  21
ATOM     21  N   UNL     1      23.324  12.011  23.988  1.00  0.00    -0.321 N 
ATOM     22  C   UNL     1      22.372  12.909  24.436  1.00  0.00     0.274 C 
ATOM     23  O   UNL     1      21.544  13.469  23.729  1.00  0.00    -0.267 OA
ATOM     24  H   UNL     1      23.995  11.730  24.651  1.00  0.00     0.170 HD
BRANCH  22  25
ATOM     25  C   UNL     1      22.371  13.155  25.899  1.00  0.00     0.128 A 
ATOM     26  N   UNL     1      23.378  13.894  26.376  1.00  0.00    -0.248 NA
ATOM     27  C   UNL     1      21.358  12.636  26.686  1.00  0.00     0.037 A 
ATOM     28  C   UNL     1      23.401  14.126  27.699  1.00  0.00     0.151 A 
ATOM     29  C   UNL     1      21.406  12.898  28.044  1.00  0.00     0.043 A 
ATOM     30  C   UNL     1      22.442  13.649  28.564  1.00  0.00     0.141 A 
ATOM     31  F   UNL     1      22.526  13.936  29.874  1.00  0.00    -0.205 F 
ENDBRANCH  22  25
ENDBRANCH   3  21
TORSDOF 3
ENDMDL
MODEL 6
REMARK VINA RESULT:    -8.834      2.661      3.856
REMARK INTER + INTRA:          -9.955
REMARK INTER:                 -10.600
REMARK INTRA:                   0.645
REMARK UNBOUND:                 0.428
REMARK SMILES CN1C(N)=N[C@](C)(c2cc(NC(=O)c3ccc(F)cn3)ccc2F)CS1(=O)=O
REMARK SMILES IDX 8 1 9 2 10 3 21 4 22 5 23 6 24 7 6 8 25 9 5 10 26 11 3 12
REMARK SMILES IDX 27 13 2 14 28 15 4 16 7 17 1 18 11 21 12 22 13 23 14 25
REMARK SMILES IDX 20 26 15 27 19 28 16 29 17 30 18 31
REMARK H PARENT 4 19 4 20 11 24
ROOT
ATOM      1  C   UNL     1      17.408   5.880  22.352  1.00  0.00     0.018 A 
ATOM      2  C   UNL     1      18.154   5.295  23.374  1.00  0.00     0.035 A 
ATOM      3  C   UNL     1      19.529   5.242  23.345  1.00  0.00     0.042 A 
ATOM      4  C   UNL     1      20.230   5.759  22.263  1.00  0.00     0.029 A 
ATOM      5  C   UNL     1      19.506   6.347  21.240  1.00  0.00     0.042 A 
ATOM      6  C   UNL     1      18.129   6.422  21.298  1.00  0.00     0.129 A 
ATOM      7  F   UNL     1      17.444   7.030  20.296  1.00  0.00    -0.207 F 
ENDROOT
BRANCH   1   8
ATOM      8  C   UNL     1      15.889   5.927  22.415  1.00  0.00     0.105 C 
ATOM      9  C   UNL     1      15.256   4.915  23.344  1.00  0.00     0.195 C 
ATOM     10  N   UNL     1      15.282   5.839  21.088  1.00  0.00    -0.240 NA
ATOM     11  S   UNL     1      15.582   3.262  22.788  1.00  0.00     0.239 S 
ATOM     12  C   UNL     1      15.115   4.700  20.489  1.00  0.00     0.205 C 
ATOM     13  O   UNL     1      14.481   2.441  23.259  1.00  0.00    -0.206 OA
ATOM     14  N   UNL     1      15.386   3.450  21.088  1.00  0.00    -0.243 N 
ATOM     15  O   UNL     1      16.961   2.918  22.937  1.00  0.00    -0.206 OA
ATOM     16  N   UNL     1      14.630   4.611  19.212  1.00  0.00    -0.369 N 
ATOM     17  C   UNL     1      15.457   7.313  22.899  1.00  0.00     0.044 C 
ATOM     18  C   UNL     1      15.310   2.172  20.353  1.00  0.00     0.167 C 
ATOM     19  H   UNL     1      14.411   5.429  18.710  1.00  0.00     0.159 HD
ATOM     20  H   UNL     1      14.499   3.728  18.795  1.00  0.00     0.159 HD
ENDBRANCH   1   8
BRANCH   3  21
ATOM     21  N   UNL     1      20.157   4.624  24.434  1.00  0.00    -0.321 N 
ATOM     22  C   UNL     1      21.274   3.809  24.430  1.00  0.00     0.274 C 
ATOM     23  O   UNL     1      21.833   3.384  23.427  1.00  0.00    -0.267 OA
ATOM     24  H   UNL     1      19.750   4.792  25.315  1.00  0.00     0.170 HD
BRANCH  22  25
ATOM     25  C   UNL     1      21.823   3.480  25.768  1.00  0.00     0.128 A 
ATOM     26  N   UNL     1      22.906   2.696  25.789  1.00  0.00    -0.248 NA
ATOM     27  C   UNL     1      21.221   3.988  26.906  1.00  0.00     0.037 A 
ATOM     28  C   UNL     1      23.419   2.381  26.989  1.00  0.00     0.151 A 
ATOM     29  C   UNL     1      21.775   3.650  28.128  1.00  0.00     0.043 A 
ATOM     30  C   UNL     1      22.887   2.832  28.176  1.00  0.00     0.141 A 
ATOM     31  F   UNL     1      23.466   2.485  29.339  1.00  0.00    -0.205 F 
ENDBRANCH  22  25
ENDBRANCH   3  21
TORSDOF 3
ENDMDL
MODEL 7
REMARK VINA RESULT:    -8.749      3.153      8.249
REMARK INTER + INTRA:          -9.855
REMARK INTER:                 -10.481
REMARK INTRA:                   0.626
REMARK UNBOUND:                 0.428
REMARK SMILES CN1C(N)=N[C@](C)(c2cc(NC(=O)c3ccc(F)cn3)ccc2F)CS1(=O)=O
REMARK SMILES IDX 8 1 9 2 10 3 21 4 22 5 23 6 24 7 6 8 25 9 5 10 26 11 3 12
REMARK SMILES IDX 27 13 2 14 28 15 4 16 7 17 1 18 11 21 12 22 13 23 14 25
REMARK SMILES IDX 20 26 15 27 19 28 16 29 17 30 18 31
REMARK H PARENT 4 19 4 20 11 24
ROOT
ATOM      1  C   UNL     1      18.722   7.424  22.418  1.00  0.00     0.018 A 
ATOM      2  C   UNL     1      18.017   6.677  21.476  1.00  0.00     0.035 A 
ATOM      3  C   UNL     1      16.708   6.951  21.149  1.00  0.00     0.042 A 
ATOM      4  C   UNL     1      16.029   7.989  21.775  1.00  0.00     0.029 A 
ATOM      5  C   UNL     1      16.715   8.744  22.710  1.00  0.00     0.042 A 
ATOM      6  C   UNL     1      18.038   8.477  23.005  1.00  0.00     0.129 A 
ATOM      7  F   UNL     1      18.697   9.251  23.905  1.00  0.00    -0.207 F 
ENDROOT
BRANCH   1   8
ATOM      8  C   UNL     1      20.169   7.098  22.755  1.00  0.00     0.105 C 
ATOM      9  C   UNL     1      20.506   5.623  22.772  1.00  0.00     0.195 C 
ATOM     10  N   UNL     1      20.595   7.724  24.006  1.00  0.00    -0.240 NA
ATOM     11  S   UNL     1      19.599   4.787  24.049  1.00  0.00     0.239 S 
ATOM     12  C   UNL     1      20.320   7.200  25.160  1.00  0.00     0.205 C 
ATOM     13  O   UNL     1      20.400   3.641  24.442  1.00  0.00    -0.206 OA
ATOM     14  N   UNL     1      19.700   5.941  25.323  1.00  0.00    -0.243 N 
ATOM     15  O   UNL     1      18.202   4.727  23.751  1.00  0.00    -0.206 OA
ATOM     16  N   UNL     1      20.635   7.820  26.339  1.00  0.00    -0.369 N 
ATOM     17  C   UNL     1      21.080   7.755  21.715  1.00  0.00     0.044 C 
ATOM     18  C   UNL     1      19.281   5.414  26.637  1.00  0.00     0.167 C 
ATOM     19  H   UNL     1      21.071   8.703  26.329  1.00  0.00     0.159 HD
ATOM     20  H   UNL     1      20.427   7.383  27.196  1.00  0.00     0.159 HD
ENDBRANCH   1   8
BRANCH   3  21
ATOM     21  N   UNL     1      16.114   6.121  20.189  1.00  0.00    -0.321 N 
ATOM     22  C   UNL     1      14.811   5.658  20.145  1.00  0.00     0.274 C 
ATOM     23  O   UNL     1      13.982   5.803  21.034  1.00  0.00    -0.267 OA
ATOM     24  H   UNL     1      16.698   5.831  19.452  1.00  0.00     0.170 HD
BRANCH  22  25
ATOM     25  C   UNL     1      14.426   4.970  18.889  1.00  0.00     0.128 A 
ATOM     26  N   UNL     1      14.628   3.649  18.850  1.00  0.00    -0.248 NA
ATOM     27  C   UNL     1      13.880   5.695  17.843  1.00  0.00     0.037 A 
ATOM     28  C   UNL     1      14.291   3.005  17.721  1.00  0.00     0.151 A 
ATOM     29  C   UNL     1      13.537   5.002  16.696  1.00  0.00     0.043 A 
ATOM     30  C   UNL     1      13.748   3.639  16.626  1.00  0.00     0.141 A 
ATOM     31  F   UNL     1      13.422   2.922  15.537  1.00  0.00    -0.205 F 
ENDBRANCH  22  25
ENDBRANCH   3  21
TORSDOF 3
ENDMDL
MODEL 8
REMARK VINA RESULT:    -8.723      4.583      6.043
REMARK INTER + INTRA:          -9.824
REMARK INTER:                  -9.715
REMARK INTRA:                  -0.109
REMARK UNBOUND:                 0.428
REMARK SMILES CN1C(N)=N[C@](C)(c2cc(NC(=O)c3ccc(F)cn3)ccc2F)CS1(=O)=O
REMARK SMILES IDX 8 1 9 2 10 3 21 4 22 5 23 6 24 7 6 8 25 9 5 10 26 11 3 12
REMARK SMILES IDX 27 13 2 14 28 15 4 16 7 17 1 18 11 21 12 22 13 23 14 25
REMARK SMILES IDX 20 26 15 27 19 28 16 29 17 30 18 31
REMARK H PARENT 4 19 4 20 11 24
ROOT
ATOM      1  C   UNL     1      16.600   7.645  21.506  1.00  0.00     0.018 A 
ATOM      2  C   UNL     1      17.444   8.518  22.191  1.00  0.00     0.035 A 
ATOM      3  C   UNL     1      16.968   9.602  22.893  1.00  0.00     0.042 A 
ATOM      4  C   UNL     1      15.607   9.878  22.924  1.00  0.00     0.029 A 
ATOM      5  C   UNL     1      14.754   9.020  22.253  1.00  0.00     0.042 A 
ATOM      6  C   UNL     1      15.242   7.918  21.579  1.00  0.00     0.129 A 
ATOM      7  F   UNL     1      14.382   7.075  20.953  1.00  0.00    -0.207 F 
ENDROOT
BRANCH   1   8
ATOM      8  C   UNL     1      17.155   6.453  20.741  1.00  0.00     0.105 C 
ATOM      9  C   UNL     1      16.583   5.112  21.141  1.00  0.00     0.195 C 
ATOM     10  N   UNL     1      18.616   6.408  20.782  1.00  0.00    -0.240 NA
ATOM     11  S   UNL     1      16.993   4.732  22.826  1.00  0.00     0.239 S 
ATOM     12  C   UNL     1      19.255   5.917  21.799  1.00  0.00     0.205 C 
ATOM     13  O   UNL     1      17.024   3.284  22.928  1.00  0.00    -0.206 OA
ATOM     14  N   UNL     1      18.623   5.283  22.892  1.00  0.00    -0.243 N 
ATOM     15  O   UNL     1      16.306   5.587  23.742  1.00  0.00    -0.206 OA
ATOM     16  N   UNL     1      20.620   5.949  21.889  1.00  0.00    -0.369 N 
ATOM     17  C   UNL     1      16.860   6.641  19.251  1.00  0.00     0.044 C 
ATOM     18  C   UNL     1      19.352   4.841  24.097  1.00  0.00     0.167 C 
ATOM     19  H   UNL     1      21.151   6.370  21.175  1.00  0.00     0.159 HD
ATOM     20  H   UNL     1      21.072   5.550  22.668  1.00  0.00     0.159 HD
ENDBRANCH   1   8
BRANCH   3  21
ATOM     21  N   UNL     1      17.923  10.402  23.534  1.00  0.00    -0.321 N 
ATOM     22  C   UNL     1      17.814  11.062  24.746  1.00  0.00     0.274 C 
ATOM     23  O   UNL     1      16.788  11.156  25.407  1.00  0.00    -0.267 OA
ATOM     24  H   UNL     1      18.781  10.508  23.063  1.00  0.00     0.170 HD
BRANCH  22  25
ATOM     25  C   UNL     1      19.073  11.656  25.259  1.00  0.00     0.128 A 
ATOM     26  N   UNL     1      19.459  11.265  26.477  1.00  0.00    -0.248 NA
ATOM     27  C   UNL     1      19.781  12.553  24.479  1.00  0.00     0.037 A 
ATOM     28  C   UNL     1      20.594  11.792  26.965  1.00  0.00     0.151 A 
ATOM     29  C   UNL     1      20.950  13.075  25.006  1.00  0.00     0.043 A 
ATOM     30  C   UNL     1      21.364  12.696  26.268  1.00  0.00     0.141 A 
ATOM     31  F   UNL     1      22.496  13.169  26.818  1.00  0.00    -0.205 F 
ENDBRANCH  22  25
ENDBRANCH   3  21
TORSDOF 3
ENDMDL
MODEL 9
REMARK VINA RESULT:    -8.584      9.548     11.373
REMARK INTER + INTRA:          -9.661
REMARK INTER:                  -9.429
REMARK INTRA:                  -0.231
REMARK UNBOUND:                 0.428
REMARK SMILES CN1C(N)=N[C@](C)(c2cc(NC(=O)c3ccc(F)cn3)ccc2F)CS1(=O)=O
REMARK SMILES IDX 8 1 9 2 10 3 21 4 22 5 23 6 24 7 6 8 25 9 5 10 26 11 3 12
REMARK SMILES IDX 27 13 2 14 28 15 4 16 7 17 1 18 11 21 12 22 13 23 14 25
REMARK SMILES IDX 20 26 15 27 19 28 16 29 17 30 18 31
REMARK H PARENT 4 19 4 20 11 24
ROOT
ATOM      1  C   UNL     1      23.793  11.687  21.207  1.00  0.00     0.018 A 
ATOM      2  C   UNL     1      23.354  11.964  22.501  1.00  0.00     0.035 A 
ATOM      3  C   UNL     1      22.793  11.002  23.310  1.00  0.00     0.042 A 
ATOM      4  C   UNL     1      22.623   9.704  22.845  1.00  0.00     0.029 A 
ATOM      5  C   UNL     1      23.056   9.410  21.564  1.00  0.00     0.042 A 
ATOM      6  C   UNL     1      23.646  10.378  20.775  1.00  0.00     0.129 A 
ATOM      7  F   UNL     1      24.089  10.057  19.533  1.00  0.00    -0.207 F 
ENDROOT
BRANCH   1   8
ATOM      8  C   UNL     1      24.412  12.772  20.339  1.00  0.00     0.105 C 
ATOM      9  C   UNL     1      25.778  12.443  19.780  1.00  0.00     0.195 C 
ATOM     10  N   UNL     1      24.446  14.066  21.019  1.00  0.00    -0.240 NA
ATOM     11  S   UNL     1      26.962  12.254  21.088  1.00  0.00     0.239 S 
ATOM     12  C   UNL     1      25.378  14.364  21.869  1.00  0.00     0.205 C 
ATOM     13  O   UNL     1      28.256  12.602  20.529  1.00  0.00    -0.206 OA
ATOM     14  N   UNL     1      26.495  13.540  22.133  1.00  0.00    -0.243 N 
ATOM     15  O   UNL     1      26.712  11.078  21.861  1.00  0.00    -0.206 OA
ATOM     16  N   UNL     1      25.373  15.536  22.578  1.00  0.00    -0.369 N 
ATOM     17  C   UNL     1      23.490  13.035  19.145  1.00  0.00     0.044 C 
ATOM     18  C   UNL     1      27.481  13.835  23.192  1.00  0.00     0.167 C 
ATOM     19  H   UNL     1      24.635  16.177  22.463  1.00  0.00     0.159 HD
ATOM     20  H   UNL     1      26.108  15.737  23.202  1.00  0.00     0.159 HD
ENDBRANCH   1   8
BRANCH   3  21
ATOM     21  N   UNL     1      22.391  11.412  24.588  1.00  0.00    -0.321 N 
ATOM     22  C   UNL     1      21.439  12.358  24.924  1.00  0.00     0.274 C 
ATOM     23  O   UNL     1      20.872  13.099  24.132  1.00  0.00    -0.267 OA
ATOM     24  H   UNL     1      22.844  10.971  25.342  1.00  0.00     0.170 HD
BRANCH  22  25
ATOM     25  C   UNL     1      21.088  12.419  26.364  1.00  0.00     0.128 A 
ATOM     26  N   UNL     1      21.830  11.671  27.187  1.00  0.00    -0.248 NA
ATOM     27  C   UNL     1      20.047  13.227  26.788  1.00  0.00     0.037 A 
ATOM     28  C   UNL     1      21.528  11.706  28.495  1.00  0.00     0.151 A 
ATOM     29  C   UNL     1      19.764  13.246  28.142  1.00  0.00     0.043 A 
ATOM     30  C   UNL     1      20.508  12.473  29.012  1.00  0.00     0.141 A 
ATOM     31  F   UNL     1      20.276  12.467  30.336  1.00  0.00    -0.205 F 
ENDBRANCH  22  25
ENDBRANCH   3  21
TORSDOF 3
ENDMDL
MODEL 10
REMARK VINA RESULT:    -8.378      8.739     10.969
REMARK INTER + INTRA:          -9.419
REMARK INTER:                  -9.511
REMARK INTRA:                   0.092
REMARK UNBOUND:                 0.428
REMARK SMILES CN1C(N)=N[C@](C)(c2cc(NC(=O)c3ccc(F)cn3)ccc2F)CS1(=O)=O
REMARK SMILES IDX 8 1 9 2 10 3 21 4 22 5 23 6 24 7 6 8 25 9 5 10 26 11 3 12
REMARK SMILES IDX 27 13 2 14 28 15 4 16 7 17 1 18 11 21 12 22 13 23 14 25
REMARK SMILES IDX 20 26 15 27 19 28 16 29 17 30 18 31
REMARK H PARENT 4 19 4 20 11 24
ROOT
ATOM      1  C   UNL     1      24.925  11.270  19.852  1.00  0.00     0.018 A 
ATOM      2  C   UNL     1      24.120  10.585  20.761  1.00  0.00     0.035 A 
ATOM      3  C   UNL     1      24.269   9.239  21.009  1.00  0.00     0.042 A 
ATOM      4  C   UNL     1      25.231   8.502  20.330  1.00  0.00     0.029 A 
ATOM      5  C   UNL     1      26.042   9.166  19.427  1.00  0.00     0.042 A 
ATOM      6  C   UNL     1      25.902  10.523  19.212  1.00  0.00     0.129 A 
ATOM      7  F   UNL     1      26.729  11.156  18.342  1.00  0.00    -0.207 F 
ENDROOT
BRANCH   1   8
ATOM      8  C   UNL     1      24.737  12.758  19.603  1.00  0.00     0.105 C 
ATOM      9  C   UNL     1      26.007  13.579  19.639  1.00  0.00     0.195 C 
ATOM     10  N   UNL     1      23.736  13.342  20.495  1.00  0.00    -0.240 NA
ATOM     11  S   UNL     1      26.737  13.534  21.256  1.00  0.00     0.239 S 
ATOM     12  C   UNL     1      24.027  13.691  21.710  1.00  0.00     0.205 C 
ATOM     13  O   UNL     1      27.481  14.771  21.409  1.00  0.00    -0.206 OA
ATOM     14  N   UNL     1      25.334  13.656  22.246  1.00  0.00    -0.243 N 
ATOM     15  O   UNL     1      27.260  12.239  21.563  1.00  0.00    -0.206 OA
ATOM     16  N   UNL     1      23.081  14.156  22.583  1.00  0.00    -0.369 N 
ATOM     17  C   UNL     1      24.116  12.953  18.217  1.00  0.00     0.044 C 
ATOM     18  C   UNL     1      25.629  13.938  23.665  1.00  0.00     0.167 C 
ATOM     19  H   UNL     1      22.140  14.218  22.301  1.00  0.00     0.159 HD
ATOM     20  H   UNL     1      23.342  14.430  23.492  1.00  0.00     0.159 HD
ENDBRANCH   1   8
BRANCH   3  21
ATOM     21  N   UNL     1      23.393   8.672  21.944  1.00  0.00    -0.321 N 
ATOM     22  C   UNL     1      22.622   9.315  22.896  1.00  0.00     0.274 C 
ATOM     23  O   UNL     1      22.682  10.508  23.162  1.00  0.00    -0.267 OA
ATOM     24  H   UNL     1      23.317   7.691  21.920  1.00  0.00     0.170 HD
BRANCH  22  25
ATOM     25  C   UNL     1      21.636   8.457  23.597  1.00  0.00     0.128 A 
ATOM     26  N   UNL     1      21.360   8.785  24.863  1.00  0.00    -0.248 NA
ATOM     27  C   UNL     1      21.052   7.392  22.934  1.00  0.00     0.037 A 
ATOM     28  C   UNL     1      20.473   8.020  25.520  1.00  0.00     0.151 A 
ATOM     29  C   UNL     1      20.138   6.626  23.635  1.00  0.00     0.043 A 
ATOM     30  C   UNL     1      19.844   6.937  24.949  1.00  0.00     0.141 A 
ATOM     31  F   UNL     1      18.956   6.228  25.667  1.00  0.00    -0.205 F 
ENDBRANCH  22  25
ENDBRANCH   3  21
TORSDOF 3
ENDMDL
MODEL 11
REMARK VINA RESULT:    -8.368      5.563      7.477
REMARK INTER + INTRA:          -9.407
REMARK INTER:                  -8.964
REMARK INTRA:                  -0.443
REMARK UNBOUND:                 0.428
REMARK SMILES CN1C(N)=N[C@](C)(c2cc(NC(=O)c3ccc(F)cn3)ccc2F)CS1(=O)=O
REMARK SMILES IDX 8 1 9 2 10 3 21 4 22 5 23 6 24 7 6 8 25 9 5 10 26 11 3 12
REMARK SMILES IDX 27 13 2 14 28 15 4 16 7 17 1 18 11 21 12 22 13 23 14 25
REMARK SMILES IDX 20 26 15 27 19 28 16 29 17 30 18 31
REMARK H PARENT 4 19 4 20 11 24
ROOT
ATOM      1  C   UNL     1      18.445   7.931  23.147  1.00  0.00     0.018 A 
ATOM      2  C   UNL     1      19.390   8.897  23.490  1.00  0.00     0.035 A 
ATOM      3  C   UNL     1      19.082   9.978  24.284  1.00  0.00     0.042 A 
ATOM      4  C   UNL     1      17.789  10.156  24.760  1.00  0.00     0.029 A 
ATOM      5  C   UNL     1      16.839   9.205  24.432  1.00  0.00     0.042 A 
ATOM      6  C   UNL     1      17.170   8.109  23.661  1.00  0.00     0.129 A 
ATOM      7  F   UNL     1      16.226   7.175  23.378  1.00  0.00    -0.207 F 
ENDROOT
BRANCH   1   8
ATOM      8  C   UNL     1      18.817   6.746  22.269  1.00  0.00     0.105 C 
ATOM      9  C   UNL     1      18.528   5.388  22.871  1.00  0.00     0.195 C 
ATOM     10  N   UNL     1      20.206   6.810  21.820  1.00  0.00    -0.240 NA
ATOM     11  S   UNL     1      19.505   5.128  24.329  1.00  0.00     0.239 S 
ATOM     12  C   UNL     1      21.186   6.421  22.576  1.00  0.00     0.205 C 
ATOM     13  O   UNL     1      19.694   3.693  24.451  1.00  0.00    -0.206 OA
ATOM     14  N   UNL     1      21.010   5.800  23.832  1.00  0.00    -0.243 N 
ATOM     15  O   UNL     1      19.089   5.977  25.402  1.00  0.00    -0.206 OA
ATOM     16  N   UNL     1      22.496   6.558  22.203  1.00  0.00    -0.369 N 
ATOM     17  C   UNL     1      18.028   6.834  20.960  1.00  0.00     0.044 C 
ATOM     18  C   UNL     1      22.133   5.476  24.735  1.00  0.00     0.167 C 
ATOM     19  H   UNL     1      22.721   6.980  21.342  1.00  0.00     0.159 HD
ATOM     20  H   UNL     1      23.213   6.234  22.795  1.00  0.00     0.159 HD
ENDBRANCH   1   8
BRANCH   3  21
ATOM     21  N   UNL     1      20.123  10.877  24.552  1.00  0.00    -0.321 N 
ATOM     22  C   UNL     1      20.881  10.992  25.703  1.00  0.00     0.274 C 
ATOM     23  O   UNL     1      20.670  10.391  26.749  1.00  0.00    -0.267 OA
ATOM     24  H   UNL     1      20.343  11.507  23.828  1.00  0.00     0.170 HD
BRANCH  22  25
ATOM     25  C   UNL     1      22.050  11.899  25.604  1.00  0.00     0.128 A 
ATOM     26  N   UNL     1      22.243  12.732  26.631  1.00  0.00    -0.248 NA
ATOM     27  C   UNL     1      22.875  11.844  24.494  1.00  0.00     0.037 A 
ATOM     28  C   UNL     1      23.294  13.566  26.562  1.00  0.00     0.151 A 
ATOM     29  C   UNL     1      23.952  12.711  24.454  1.00  0.00     0.043 A 
ATOM     30  C   UNL     1      24.167  13.590  25.498  1.00  0.00     0.141 A 
ATOM     31  F   UNL     1      25.204  14.445  25.507  1.00  0.00    -0.205 F 
ENDBRANCH  22  25
ENDBRANCH   3  21
TORSDOF 3
ENDMDL
MODEL 12
REMARK VINA RESULT:    -8.305     10.317     12.113
REMARK INTER + INTRA:          -9.333
REMARK INTER:                  -8.940
REMARK INTRA:                  -0.393
REMARK UNBOUND:                 0.428
REMARK SMILES CN1C(N)=N[C@](C)(c2cc(NC(=O)c3ccc(F)cn3)ccc2F)CS1(=O)=O
REMARK SMILES IDX 8 1 9 2 10 3 21 4 22 5 23 6 24 7 6 8 25 9 5 10 26 11 3 12
REMARK SMILES IDX 27 13 2 14 28 15 4 16 7 17 1 18 11 21 12 22 13 23 14 25
REMARK SMILES IDX 20 26 15 27 19 28 16 29 17 30 18 31
REMARK H PARENT 4 19 4 20 11 24
ROOT
ATOM      1  C   UNL     1      25.342  10.936  19.696  1.00  0.00     0.018 A 
ATOM      2  C   UNL     1      25.975   9.856  20.308  1.00  0.00     0.035 A 
ATOM      3  C   UNL     1      26.125   8.639  19.683  1.00  0.00     0.042 A 
ATOM      4  C   UNL     1      25.621   8.438  18.404  1.00  0.00     0.029 A 
ATOM      5  C   UNL     1      24.992   9.501  17.779  1.00  0.00     0.042 A 
ATOM      6  C   UNL     1      24.877  10.726  18.407  1.00  0.00     0.129 A 
ATOM      7  F   UNL     1      24.281  11.760  17.760  1.00  0.00    -0.207 F 
ENDROOT
BRANCH   1   8
ATOM      8  C   UNL     1      25.194  12.270  20.412  1.00  0.00     0.105 C 
ATOM      9  C   UNL     1      25.656  13.475  19.623  1.00  0.00     0.195 C 
ATOM     10  N   UNL     1      25.829  12.258  21.729  1.00  0.00    -0.240 NA
ATOM     11  S   UNL     1      27.399  13.385  19.302  1.00  0.00     0.239 S 
ATOM     12  C   UNL     1      27.105  12.444  21.872  1.00  0.00     0.205 C 
ATOM     13  O   UNL     1      27.868  14.753  19.176  1.00  0.00    -0.206 OA
ATOM     14  N   UNL     1      27.973  12.787  20.811  1.00  0.00    -0.243 N 
ATOM     15  O   UNL     1      27.712  12.339  18.379  1.00  0.00    -0.206 OA
ATOM     16  N   UNL     1      27.726  12.348  23.088  1.00  0.00    -0.369 N 
ATOM     17  C   UNL     1      23.716  12.490  20.746  1.00  0.00     0.044 C 
ATOM     18  C   UNL     1      29.439  12.873  20.966  1.00  0.00     0.167 C 
ATOM     19  H   UNL     1      27.204  12.114  23.890  1.00  0.00     0.159 HD
ATOM     20  H   UNL     1      28.694  12.514  23.162  1.00  0.00     0.159 HD
ENDBRANCH   1   8
BRANCH   3  21
ATOM     21  N   UNL     1      26.779   7.636  20.410  1.00  0.00    -0.321 N 
ATOM     22  C   UNL     1      26.227   6.527  21.028  1.00  0.00     0.274 C 
ATOM     23  O   UNL     1      25.028   6.311  21.146  1.00  0.00    -0.267 OA
ATOM     24  H   UNL     1      27.755   7.732  20.493  1.00  0.00     0.170 HD
BRANCH  22  25
ATOM     25  C   UNL     1      27.204   5.536  21.540  1.00  0.00     0.128 A 
ATOM     26  N   UNL     1      28.496   5.839  21.379  1.00  0.00    -0.248 NA
ATOM     27  C   UNL     1      26.756   4.378  22.153  1.00  0.00     0.037 A 
ATOM     28  C   UNL     1      29.399   4.954  21.831  1.00  0.00     0.151 A 
ATOM     29  C   UNL     1      27.711   3.489  22.614  1.00  0.00     0.043 A 
ATOM     30  C   UNL     1      29.053   3.774  22.449  1.00  0.00     0.141 A 
ATOM     31  F   UNL     1      30.016   2.945  22.888  1.00  0.00    -0.205 F 
ENDBRANCH  22  25
ENDBRANCH   3  21
TORSDOF 3
ENDMDL
MODEL 13
REMARK VINA RESULT:    -8.235      6.162      8.179
REMARK INTER + INTRA:          -9.250
REMARK INTER:                  -9.053
REMARK INTRA:                  -0.198
REMARK UNBOUND:                 0.428
REMARK SMILES CN1C(N)=N[C@](C)(c2cc(NC(=O)c3ccc(F)cn3)ccc2F)CS1(=O)=O
REMARK SMILES IDX 8 1 9 2 10 3 21 4 22 5 23 6 24 7 6 8 25 9 5 10 26 11 3 12
REMARK SMILES IDX 27 13 2 14 28 15 4 16 7 17 1 18 11 21 12 22 13 23 14 25
REMARK SMILES IDX 20 26 15 27 19 28 16 29 17 30 18 31
REMARK H PARENT 4 19 4 20 11 24
ROOT
ATOM      1  C   UNL     1      19.333   8.103  23.582  1.00  0.00     0.018 A 
ATOM      2  C   UNL     1      20.415   8.971  23.723  1.00  0.00     0.035 A 
ATOM      3  C   UNL     1      20.375  10.068  24.554  1.00  0.00     0.042 A 
ATOM      4  C   UNL     1      19.226  10.362  25.276  1.00  0.00     0.029 A 
ATOM      5  C   UNL     1      18.143   9.509  25.152  1.00  0.00     0.042 A 
ATOM      6  C   UNL     1      18.208   8.395  24.338  1.00  0.00     0.129 A 
ATOM      7  F   UNL     1      17.142   7.558  24.256  1.00  0.00    -0.207 F 
ENDROOT
BRANCH   1   8
ATOM      8  C   UNL     1      19.409   6.898  22.657  1.00  0.00     0.105 C 
ATOM      9  C   UNL     1      18.950   5.592  23.268  1.00  0.00     0.195 C 
ATOM     10  N   UNL     1      20.738   6.738  22.072  1.00  0.00    -0.240 NA
ATOM     11  S   UNL     1      20.004   5.127  24.618  1.00  0.00     0.239 S 
ATOM     12  C   UNL     1      21.705   6.166  22.721  1.00  0.00     0.205 C 
ATOM     13  O   UNL     1      19.954   3.678  24.702  1.00  0.00    -0.206 OA
ATOM     14  N   UNL     1      21.547   5.548  23.981  1.00  0.00    -0.243 N 
ATOM     15  O   UNL     1      19.846   6.003  25.737  1.00  0.00    -0.206 OA
ATOM     16  N   UNL     1      22.977   6.089  22.220  1.00  0.00    -0.369 N 
ATOM     17  C   UNL     1      18.524   7.157  21.435  1.00  0.00     0.044 C 
ATOM     18  C   UNL     1      22.680   5.012  24.762  1.00  0.00     0.167 C 
ATOM     19  H   UNL     1      23.187   6.492  21.346  1.00  0.00     0.159 HD
ATOM     20  H   UNL     1      23.682   5.631  22.732  1.00  0.00     0.159 HD
ENDBRANCH   1   8
BRANCH   3  21
ATOM     21  N   UNL     1      21.529  10.861  24.602  1.00  0.00    -0.321 N 
ATOM     22  C   UNL     1      21.638  12.228  24.419  1.00  0.00     0.274 C 
ATOM     23  O   UNL     1      20.732  12.963  24.050  1.00  0.00    -0.267 OA
ATOM     24  H   UNL     1      22.370  10.384  24.791  1.00  0.00     0.170 HD
BRANCH  22  25
ATOM     25  C   UNL     1      22.965  12.806  24.742  1.00  0.00     0.128 A 
ATOM     26  N   UNL     1      23.070  13.428  25.921  1.00  0.00    -0.248 NA
ATOM     27  C   UNL     1      24.012  12.676  23.846  1.00  0.00     0.037 A 
ATOM     28  C   UNL     1      24.261  13.964  26.233  1.00  0.00     0.151 A 
ATOM     29  C   UNL     1      25.228  13.233  24.199  1.00  0.00     0.043 A 
ATOM     30  C   UNL     1      25.359  13.892  25.406  1.00  0.00     0.141 A 
ATOM     31  F   UNL     1      26.522  14.440  25.796  1.00  0.00    -0.205 F 
ENDBRANCH  22  25
ENDBRANCH   3  21
TORSDOF 3
ENDMDL
MODEL 14
REMARK VINA RESULT:    -8.214      6.525      9.156
REMARK INTER + INTRA:          -9.226
REMARK INTER:                  -9.557
REMARK INTRA:                   0.331
REMARK UNBOUND:                 0.428
REMARK SMILES CN1C(N)=N[C@](C)(c2cc(NC(=O)c3ccc(F)cn3)ccc2F)CS1(=O)=O
REMARK SMILES IDX 8 1 9 2 10 3 21 4 22 5 23 6 24 7 6 8 25 9 5 10 26 11 3 12
REMARK SMILES IDX 27 13 2 14 28 15 4 16 7 17 1 18 11 21 12 22 13 23 14 25
REMARK SMILES IDX 20 26 15 27 19 28 16 29 17 30 18 31
REMARK H PARENT 4 19 4 20 11 24
ROOT
ATOM      1  C   UNL     1      18.716  10.751  25.020  1.00  0.00     0.018 A 
ATOM      2  C   UNL     1      19.536   9.640  24.829  1.00  0.00     0.035 A 
ATOM      3  C   UNL     1      19.054   8.443  24.350  1.00  0.00     0.042 A 
ATOM      4  C   UNL     1      17.704   8.295  24.058  1.00  0.00     0.029 A 
ATOM      5  C   UNL     1      16.876   9.388  24.238  1.00  0.00     0.042 A 
ATOM      6  C   UNL     1      17.379  10.593  24.689  1.00  0.00     0.129 A 
ATOM      7  F   UNL     1      16.550  11.659  24.829  1.00  0.00    -0.207 F 
ENDROOT
BRANCH   1   8
ATOM      8  C   UNL     1      19.279  12.062  25.547  1.00  0.00     0.105 C 
ATOM      9  C   UNL     1      20.589  11.942  26.293  1.00  0.00     0.195 C 
ATOM     10  N   UNL     1      18.305  12.791  26.358  1.00  0.00    -0.240 NA
ATOM     11  S   UNL     1      20.386  10.973  27.766  1.00  0.00     0.239 S 
ATOM     12  C   UNL     1      18.102  12.500  27.606  1.00  0.00     0.205 C 
ATOM     13  O   UNL     1      21.393  11.432  28.706  1.00  0.00    -0.206 OA
ATOM     14  N   UNL     1      18.865  11.554  28.326  1.00  0.00    -0.243 N 
ATOM     15  O   UNL     1      20.137   9.599  27.463  1.00  0.00    -0.206 OA
ATOM     16  N   UNL     1      17.132  13.114  28.351  1.00  0.00    -0.369 N 
ATOM     17  C   UNL     1      19.519  13.007  24.367  1.00  0.00     0.044 C 
ATOM     18  C   UNL     1      18.543  11.144  29.707  1.00  0.00     0.167 C 
ATOM     19  H   UNL     1      16.548  13.790  27.937  1.00  0.00     0.159 HD
ATOM     20  H   UNL     1      17.019  12.881  29.301  1.00  0.00     0.159 HD
ENDBRANCH   1   8
BRANCH   3  21
ATOM     21  N   UNL     1      19.984   7.405  24.207  1.00  0.00    -0.321 N 
ATOM     22  C   UNL     1      20.350   6.448  25.137  1.00  0.00     0.274 C 
ATOM     23  O   UNL     1      20.001   6.436  26.310  1.00  0.00    -0.267 OA
ATOM     24  H   UNL     1      20.433   7.349  23.333  1.00  0.00     0.170 HD
BRANCH  22  25
ATOM     25  C   UNL     1      21.204   5.353  24.616  1.00  0.00     0.128 A 
ATOM     26  N   UNL     1      21.327   4.274  25.396  1.00  0.00    -0.248 NA
ATOM     27  C   UNL     1      21.813   5.481  23.379  1.00  0.00     0.037 A 
ATOM     28  C   UNL     1      22.099   3.271  24.947  1.00  0.00     0.151 A 
ATOM     29  C   UNL     1      22.598   4.428  22.942  1.00  0.00     0.043 A 
ATOM     30  C   UNL     1      22.750   3.308  23.735  1.00  0.00     0.141 A 
ATOM     31  F   UNL     1      23.494   2.257  23.348  1.00  0.00    -0.205 F 
ENDBRANCH  22  25
ENDBRANCH   3  21
TORSDOF 3
ENDMDL
MODEL 15
REMARK VINA RESULT:    -8.212     10.921     12.967
REMARK INTER + INTRA:          -9.224
REMARK INTER:                  -9.626
REMARK INTRA:                   0.402
REMARK UNBOUND:                 0.428
REMARK SMILES CN1C(N)=N[C@](C)(c2cc(NC(=O)c3ccc(F)cn3)ccc2F)CS1(=O)=O
REMARK SMILES IDX 8 1 9 2 10 3 21 4 22 5 23 6 24 7 6 8 25 9 5 10 26 11 3 12
REMARK SMILES IDX 27 13 2 14 28 15 4 16 7 17 1 18 11 21 12 22 13 23 14 25
REMARK SMILES IDX 20 26 15 27 19 28 16 29 17 30 18 31
REMARK H PARENT 4 19 4 20 11 24
ROOT
ATOM      1  C   UNL     1      25.462  12.381  19.320  1.00  0.00     0.018 A 
ATOM      2  C   UNL     1      26.137  11.205  18.996  1.00  0.00     0.035 A 
ATOM      3  C   UNL     1      25.481  10.013  18.790  1.00  0.00     0.042 A 
ATOM      4  C   UNL     1      24.100   9.937  18.923  1.00  0.00     0.029 A 
ATOM      5  C   UNL     1      23.413  11.096  19.240  1.00  0.00     0.042 A 
ATOM      6  C   UNL     1      24.082  12.292  19.413  1.00  0.00     0.129 A 
ATOM      7  F   UNL     1      23.381  13.421  19.695  1.00  0.00    -0.207 F 
ENDROOT
BRANCH   1   8
ATOM      8  C   UNL     1      26.215  13.684  19.538  1.00  0.00     0.105 C 
ATOM      9  C   UNL     1      27.657  13.527  19.969  1.00  0.00     0.195 C 
ATOM     10  N   UNL     1      25.512  14.578  20.456  1.00  0.00    -0.240 NA
ATOM     11  S   UNL     1      27.754  12.738  21.556  1.00  0.00     0.239 S 
ATOM     12  C   UNL     1      25.597  14.437  21.743  1.00  0.00     0.205 C 
ATOM     13  O   UNL     1      28.984  13.201  22.173  1.00  0.00    -0.206 OA
ATOM     14  N   UNL     1      26.451  13.507  22.377  1.00  0.00    -0.243 N 
ATOM     15  O   UNL     1      27.355  11.367  21.489  1.00  0.00    -0.206 OA
ATOM     16  N   UNL     1      24.875  15.210  22.613  1.00  0.00    -0.369 N 
ATOM     17  C   UNL     1      26.223  14.476  18.227  1.00  0.00     0.044 C 
ATOM     18  C   UNL     1      26.446  13.273  23.835  1.00  0.00     0.167 C 
ATOM     19  H   UNL     1      24.251  15.888  22.266  1.00  0.00     0.159 HD
ATOM     20  H   UNL     1      24.979  15.088  23.584  1.00  0.00     0.159 HD
ENDBRANCH   1   8
BRANCH   3  21
ATOM     21  N   UNL     1      26.278   8.905  18.473  1.00  0.00    -0.321 N 
ATOM     22  C   UNL     1      26.438   7.732  19.189  1.00  0.00     0.274 C 
ATOM     23  O   UNL     1      25.993   7.524  20.310  1.00  0.00    -0.267 OA
ATOM     24  H   UNL     1      26.788   8.969  17.633  1.00  0.00     0.170 HD
BRANCH  22  25
ATOM     25  C   UNL     1      27.185   6.659  18.488  1.00  0.00     0.128 A 
ATOM     26  N   UNL     1      28.283   6.204  19.100  1.00  0.00    -0.248 NA
ATOM     27  C   UNL     1      26.727   6.179  17.273  1.00  0.00     0.037 A 
ATOM     28  C   UNL     1      28.978   5.235  18.481  1.00  0.00     0.151 A 
ATOM     29  C   UNL     1      27.462   5.177  16.663  1.00  0.00     0.043 A 
ATOM     30  C   UNL     1      28.607   4.698  17.270  1.00  0.00     0.141 A 
ATOM     31  F   UNL     1      29.347   3.719  16.721  1.00  0.00    -0.205 F 
ENDBRANCH  22  25
ENDBRANCH   3  21
TORSDOF 3
ENDMDL
MODEL 16
REMARK VINA RESULT:    -8.179      5.975      8.368
REMARK INTER + INTRA:          -9.185
REMARK INTER:                  -9.233
REMARK INTRA:                   0.048
REMARK UNBOUND:                 0.428
REMARK SMILES CN1C(N)=N[C@](C)(c2cc(NC(=O)c3ccc(F)cn3)ccc2F)CS1(=O)=O
REMARK SMILES IDX 8 1 9 2 10 3 21 4 22 5 23 6 24 7 6 8 25 9 5 10 26 11 3 12
REMARK SMILES IDX 27 13 2 14 28 15 4 16 7 17 1 18 11 21 12 22 13 23 14 25
REMARK SMILES IDX 20 26 15 27 19 28 16 29 17 30 18 31
REMARK H PARENT 4 19 4 20 11 24
ROOT
ATOM      1  C   UNL     1      20.782   6.649  23.917  1.00  0.00     0.018 A 
ATOM      2  C   UNL     1      21.365   7.735  23.265  1.00  0.00     0.035 A 
ATOM      3  C   UNL     1      22.450   7.597  22.430  1.00  0.00     0.042 A 
ATOM      4  C   UNL     1      23.024   6.349  22.223  1.00  0.00     0.029 A 
ATOM      5  C   UNL     1      22.456   5.259  22.859  1.00  0.00     0.042 A 
ATOM      6  C   UNL     1      21.348   5.408  23.669  1.00  0.00     0.129 A 
ATOM      7  F   UNL     1      20.792   4.318  24.258  1.00  0.00    -0.207 F 
ENDROOT
BRANCH   1   8
ATOM      8  C   UNL     1      19.581   6.834  24.831  1.00  0.00     0.105 C 
ATOM      9  C   UNL     1      18.414   5.913  24.551  1.00  0.00     0.195 C 
ATOM     10  N   UNL     1      19.127   8.223  24.866  1.00  0.00    -0.240 NA
ATOM     11  S   UNL     1      17.741   6.227  22.939  1.00  0.00     0.239 S 
ATOM     12  C   UNL     1      18.362   8.714  23.940  1.00  0.00     0.205 C 
ATOM     13  O   UNL     1      16.340   5.850  22.995  1.00  0.00    -0.206 OA
ATOM     14  N   UNL     1      17.805   7.947  22.893  1.00  0.00    -0.243 N 
ATOM     15  O   UNL     1      18.641   5.823  21.904  1.00  0.00    -0.206 OA
ATOM     16  N   UNL     1      18.002  10.035  23.913  1.00  0.00    -0.369 N 
ATOM     17  C   UNL     1      20.017   6.579  26.277  1.00  0.00     0.044 C 
ATOM     18  C   UNL     1      17.040   8.541  21.779  1.00  0.00     0.167 C 
ATOM     19  H   UNL     1      18.340  10.651  24.603  1.00  0.00     0.159 HD
ATOM     20  H   UNL     1      17.405  10.368  23.205  1.00  0.00     0.159 HD
ENDBRANCH   1   8
BRANCH   3  21
ATOM     21  N   UNL     1      22.941   8.768  21.839  1.00  0.00    -0.321 N 
ATOM     22  C   UNL     1      24.139   8.955  21.173  1.00  0.00     0.274 C 
ATOM     23  O   UNL     1      25.042   8.132  21.102  1.00  0.00    -0.267 OA
ATOM     24  H   UNL     1      22.359   9.560  21.908  1.00  0.00     0.170 HD
BRANCH  22  25
ATOM     25  C   UNL     1      24.279  10.256  20.475  1.00  0.00     0.128 A 
ATOM     26  N   UNL     1      25.318  11.015  20.839  1.00  0.00    -0.248 NA
ATOM     27  C   UNL     1      23.366  10.620  19.500  1.00  0.00     0.037 A 
ATOM     28  C   UNL     1      25.464  12.200  20.224  1.00  0.00     0.151 A 
ATOM     29  C   UNL     1      23.546  11.844  18.880  1.00  0.00     0.043 A 
ATOM     30  C   UNL     1      24.605  12.651  19.247  1.00  0.00     0.141 A 
ATOM     31  F   UNL     1      24.825  13.844  18.667  1.00  0.00    -0.205 F 
ENDBRANCH  22  25
ENDBRANCH   3  21
TORSDOF 3
ENDMDL
MODEL 17
REMARK VINA RESULT:    -8.166      9.817     12.057
REMARK INTER + INTRA:          -9.170
REMARK INTER:                  -8.785
REMARK INTRA:                  -0.385
REMARK UNBOUND:                 0.428
REMARK SMILES CN1C(N)=N[C@](C)(c2cc(NC(=O)c3ccc(F)cn3)ccc2F)CS1(=O)=O
REMARK SMILES IDX 8 1 9 2 10 3 21 4 22 5 23 6 24 7 6 8 25 9 5 10 26 11 3 12
REMARK SMILES IDX 27 13 2 14 28 15 4 16 7 17 1 18 11 21 12 22 13 23 14 25
REMARK SMILES IDX 20 26 15 27 19 28 16 29 17 30 18 31
REMARK H PARENT 4 19 4 20 11 24
ROOT
ATOM      1  C   UNL     1      25.614  13.224  19.906  1.00  0.00     0.018 A 
ATOM      2  C   UNL     1      24.858  12.354  20.691  1.00  0.00     0.035 A 
ATOM      3  C   UNL     1      23.782  11.658  20.190  1.00  0.00     0.042 A 
ATOM      4  C   UNL     1      23.394  11.819  18.866  1.00  0.00     0.029 A 
ATOM      5  C   UNL     1      24.135  12.676  18.071  1.00  0.00     0.042 A 
ATOM      6  C   UNL     1      25.232  13.343  18.579  1.00  0.00     0.129 A 
ATOM      7  F   UNL     1      25.961  14.156  17.770  1.00  0.00    -0.207 F 
ENDROOT
BRANCH   1   8
ATOM      8  C   UNL     1      26.800  13.977  20.489  1.00  0.00     0.105 C 
ATOM      9  C   UNL     1      28.127  13.701  19.817  1.00  0.00     0.195 C 
ATOM     10  N   UNL     1      26.919  13.782  21.933  1.00  0.00    -0.240 NA
ATOM     11  S   UNL     1      28.593  12.001  20.023  1.00  0.00     0.239 S 
ATOM     12  C   UNL     1      27.481  12.725  22.434  1.00  0.00     0.205 C 
ATOM     13  O   UNL     1      30.044  11.961  19.978  1.00  0.00    -0.206 OA
ATOM     14  N   UNL     1      28.126  11.736  21.659  1.00  0.00    -0.243 N 
ATOM     15  O   UNL     1      27.742  11.126  19.278  1.00  0.00    -0.206 OA
ATOM     16  N   UNL     1      27.520  12.488  23.782  1.00  0.00    -0.369 N 
ATOM     17  C   UNL     1      26.539  15.481  20.366  1.00  0.00     0.044 C 
ATOM     18  C   UNL     1      28.651  10.480  22.231  1.00  0.00     0.167 C 
ATOM     19  H   UNL     1      27.097  13.121  24.405  1.00  0.00     0.159 HD
ATOM     20  H   UNL     1      27.971  11.684  24.127  1.00  0.00     0.159 HD
ENDBRANCH   1   8
BRANCH   3  21
ATOM     21  N   UNL     1      23.105  10.819  21.085  1.00  0.00    -0.321 N 
ATOM     22  C   UNL     1      23.448   9.540  21.487  1.00  0.00     0.274 C 
ATOM     23  O   UNL     1      24.357   8.872  21.012  1.00  0.00    -0.267 OA
ATOM     24  H   UNL     1      22.281  11.186  21.478  1.00  0.00     0.170 HD
BRANCH  22  25
ATOM     25  C   UNL     1      22.646   8.992  22.608  1.00  0.00     0.128 A 
ATOM     26  N   UNL     1      22.295   9.858  23.564  1.00  0.00    -0.248 NA
ATOM     27  C   UNL     1      22.293   7.654  22.615  1.00  0.00     0.037 A 
ATOM     28  C   UNL     1      21.571   9.384  24.592  1.00  0.00     0.151 A 
ATOM     29  C   UNL     1      21.543   7.196  23.684  1.00  0.00     0.043 A 
ATOM     30  C   UNL     1      21.178   8.068  24.692  1.00  0.00     0.141 A 
ATOM     31  F   UNL     1      20.441   7.672  25.744  1.00  0.00    -0.205 F 
ENDBRANCH  22  25
ENDBRANCH   3  21
TORSDOF 3
ENDMDL
MODEL 18
REMARK VINA RESULT:    -8.144      9.791     12.055
REMARK INTER + INTRA:          -9.143
REMARK INTER:                  -9.605
REMARK INTRA:                   0.462
REMARK UNBOUND:                 0.428
REMARK SMILES CN1C(N)=N[C@](C)(c2cc(NC(=O)c3ccc(F)cn3)ccc2F)CS1(=O)=O
REMARK SMILES IDX 8 1 9 2 10 3 21 4 22 5 23 6 24 7 6 8 25 9 5 10 26 11 3 12
REMARK SMILES IDX 27 13 2 14 28 15 4 16 7 17 1 18 11 21 12 22 13 23 14 25
REMARK SMILES IDX 20 26 15 27 19 28 16 29 17 30 18 31
REMARK H PARENT 4 19 4 20 11 24
ROOT
ATOM      1  C   UNL     1      21.267  12.396  26.401  1.00  0.00     0.018 A 
ATOM      2  C   UNL     1      21.619  12.167  25.071  1.00  0.00     0.035 A 
ATOM      3  C   UNL     1      22.780  12.660  24.521  1.00  0.00     0.042 A 
ATOM      4  C   UNL     1      23.644  13.436  25.283  1.00  0.00     0.029 A 
ATOM      5  C   UNL     1      23.313  13.671  26.606  1.00  0.00     0.042 A 
ATOM      6  C   UNL     1      22.160  13.143  27.153  1.00  0.00     0.129 A 
ATOM      7  F   UNL     1      21.873  13.364  28.461  1.00  0.00    -0.207 F 
ENDROOT
BRANCH   1   8
ATOM      8  C   UNL     1      19.978  11.834  26.980  1.00  0.00     0.105 C 
ATOM      9  C   UNL     1      18.850  11.663  25.986  1.00  0.00     0.195 C 
ATOM     10  N   UNL     1      19.516  12.600  28.136  1.00  0.00    -0.240 NA
ATOM     11  S   UNL     1      18.344  13.235  25.335  1.00  0.00     0.239 S 
ATOM     12  C   UNL     1      18.848  13.704  28.000  1.00  0.00     0.205 C 
ATOM     13  O   UNL     1      16.946  13.099  24.966  1.00  0.00    -0.206 OA
ATOM     14  N   UNL     1      18.405  14.206  26.756  1.00  0.00    -0.243 N 
ATOM     15  O   UNL     1      19.347  13.803  24.489  1.00  0.00    -0.206 OA
ATOM     16  N   UNL     1      18.486  14.477  29.071  1.00  0.00    -0.369 N 
ATOM     17  C   UNL     1      20.264  10.453  27.576  1.00  0.00     0.044 C 
ATOM     18  C   UNL     1      17.755  15.523  26.604  1.00  0.00     0.167 C 
ATOM     19  H   UNL     1      18.749  14.209  29.981  1.00  0.00     0.159 HD
ATOM     20  H   UNL     1      17.963  15.299  28.931  1.00  0.00     0.159 HD
ENDBRANCH   1   8
BRANCH   3  21
ATOM     21  N   UNL     1      23.014  12.359  23.173  1.00  0.00    -0.321 N 
ATOM     22  C   UNL     1      23.382  13.220  22.154  1.00  0.00     0.274 C 
ATOM     23  O   UNL     1      23.439  14.439  22.248  1.00  0.00    -0.267 OA
ATOM     24  H   UNL     1      22.902  11.415  22.919  1.00  0.00     0.170 HD
BRANCH  22  25
ATOM     25  C   UNL     1      23.760  12.566  20.878  1.00  0.00     0.128 A 
ATOM     26  N   UNL     1      24.446  13.315  20.008  1.00  0.00    -0.248 NA
ATOM     27  C   UNL     1      23.411  11.246  20.648  1.00  0.00     0.037 A 
ATOM     28  C   UNL     1      24.796  12.745  18.844  1.00  0.00     0.151 A 
ATOM     29  C   UNL     1      23.791  10.685  19.442  1.00  0.00     0.043 A 
ATOM     30  C   UNL     1      24.490  11.442  18.521  1.00  0.00     0.141 A 
ATOM     31  F   UNL     1      24.888  10.938  17.341  1.00  0.00    -0.205 F 
ENDBRANCH  22  25
ENDBRANCH   3  21
TORSDOF 3
ENDMDL
MODEL 19
REMARK VINA RESULT:    -8.120      3.428      8.104
REMARK INTER + INTRA:          -9.116
REMARK INTER:                  -9.035
REMARK INTRA:                  -0.080
REMARK UNBOUND:                 0.428
REMARK SMILES CN1C(N)=N[C@](C)(c2cc(NC(=O)c3ccc(F)cn3)ccc2F)CS1(=O)=O
REMARK SMILES IDX 8 1 9 2 10 3 21 4 22 5 23 6 24 7 6 8 25 9 5 10 26 11 3 12
REMARK SMILES IDX 27 13 2 14 28 15 4 16 7 17 1 18 11 21 12 22 13 23 14 25
REMARK SMILES IDX 20 26 15 27 19 28 16 29 17 30 18 31
REMARK H PARENT 4 19 4 20 11 24
ROOT
ATOM      1  C   UNL     1      18.721   6.823  23.782  1.00  0.00     0.018 A 
ATOM      2  C   UNL     1      18.522   6.228  22.537  1.00  0.00     0.035 A 
ATOM      3  C   UNL     1      17.455   6.549  21.729  1.00  0.00     0.042 A 
ATOM      4  C   UNL     1      16.512   7.480  22.147  1.00  0.00     0.029 A 
ATOM      5  C   UNL     1      16.695   8.083  23.379  1.00  0.00     0.042 A 
ATOM      6  C   UNL     1      17.787   7.774  24.165  1.00  0.00     0.129 A 
ATOM      7  F   UNL     1      17.959   8.401  25.356  1.00  0.00    -0.207 F 
ENDROOT
BRANCH   1   8
ATOM      8  C   UNL     1      19.911   6.448  24.651  1.00  0.00     0.105 C 
ATOM      9  C   UNL     1      20.544   7.598  25.402  1.00  0.00     0.195 C 
ATOM     10  N   UNL     1      20.931   5.719  23.899  1.00  0.00    -0.240 NA
ATOM     11  S   UNL     1      21.230   8.783  24.273  1.00  0.00     0.239 S 
ATOM     12  C   UNL     1      21.801   6.333  23.158  1.00  0.00     0.205 C 
ATOM     13  O   UNL     1      22.324   9.435  24.971  1.00  0.00    -0.206 OA
ATOM     14  N   UNL     1      21.927   7.738  23.095  1.00  0.00    -0.243 N 
ATOM     15  O   UNL     1      20.209   9.478  23.552  1.00  0.00    -0.206 OA
ATOM     16  N   UNL     1      22.704   5.659  22.380  1.00  0.00    -0.369 N 
ATOM     17  C   UNL     1      19.458   5.424  25.696  1.00  0.00     0.044 C 
ATOM     18  C   UNL     1      22.837   8.424  22.156  1.00  0.00     0.167 C 
ATOM     19  H   UNL     1      22.696   4.675  22.357  1.00  0.00     0.159 HD
ATOM     20  H   UNL     1      23.362   6.158  21.844  1.00  0.00     0.159 HD
ENDBRANCH   1   8
BRANCH   3  21
ATOM     21  N   UNL     1      17.371   5.876  20.503  1.00  0.00    -0.321 N 
ATOM     22  C   UNL     1      16.642   4.741  20.197  1.00  0.00     0.274 C 
ATOM     23  O   UNL     1      16.036   4.053  21.008  1.00  0.00    -0.267 OA
ATOM     24  H   UNL     1      17.898   6.260  19.766  1.00  0.00     0.170 HD
BRANCH  22  25
ATOM     25  C   UNL     1      16.590   4.391  18.757  1.00  0.00     0.128 A 
ATOM     26  N   UNL     1      17.655   3.751  18.264  1.00  0.00    -0.248 NA
ATOM     27  C   UNL     1      15.475   4.720  18.005  1.00  0.00     0.037 A 
ATOM     28  C   UNL     1      17.633   3.427  16.960  1.00  0.00     0.151 A 
ATOM     29  C   UNL     1      15.479   4.367  16.667  1.00  0.00     0.043 A 
ATOM     30  C   UNL     1      16.573   3.716  16.131  1.00  0.00     0.141 A 
ATOM     31  F   UNL     1      16.619   3.346  14.840  1.00  0.00    -0.205 F 
ENDBRANCH  22  25
ENDBRANCH   3  21
TORSDOF 3
ENDMDL
MODEL 20
REMARK VINA RESULT:    -7.523      2.332      2.937
REMARK INTER + INTRA:          -8.414
REMARK INTER:                  -7.980
REMARK INTRA:                  -0.434
REMARK UNBOUND:                 0.428
REMARK SMILES CN1C(N)=N[C@](C)(c2cc(NC(=O)c3ccc(F)cn3)ccc2F)CS1(=O)=O
REMARK SMILES IDX 8 1 9 2 10 3 21 4 22 5 23 6 24 7 6 8 25 9 5 10 26 11 3 12
REMARK SMILES IDX 27 13 2 14 28 15 4 16 7 17 1 18 11 21 12 22 13 23 14 25
REMARK SMILES IDX 20 26 15 27 19 28 16 29 17 30 18 31
REMARK H PARENT 4 19 4 20 11 24
ROOT
ATOM      1  C   UNL     1      14.895   4.079  20.583  1.00  0.00     0.018 A 
ATOM      2  C   UNL     1      15.703   4.841  21.424  1.00  0.00     0.035 A 
ATOM      3  C   UNL     1      15.884   4.530  22.753  1.00  0.00     0.042 A 
ATOM      4  C   UNL     1      15.236   3.436  23.313  1.00  0.00     0.029 A 
ATOM      5  C   UNL     1      14.432   2.666  22.492  1.00  0.00     0.042 A 
ATOM      6  C   UNL     1      14.286   2.972  21.153  1.00  0.00     0.129 A 
ATOM      7  F   UNL     1      13.514   2.183  20.362  1.00  0.00    -0.207 F 
ENDROOT
BRANCH   1   8
ATOM      8  C   UNL     1      14.718   4.447  19.118  1.00  0.00     0.105 C 
ATOM      9  C   UNL     1      15.028   3.339  18.136  1.00  0.00     0.195 C 
ATOM     10  N   UNL     1      15.461   5.655  18.763  1.00  0.00    -0.240 NA
ATOM     11  S   UNL     1      16.740   2.880  18.229  1.00  0.00     0.239 S 
ATOM     12  C   UNL     1      16.729   5.620  18.490  1.00  0.00     0.205 C 
ATOM     13  O   UNL     1      17.103   2.367  16.920  1.00  0.00    -0.206 OA
ATOM     14  N   UNL     1      17.479   4.426  18.393  1.00  0.00    -0.243 N 
ATOM     15  O   UNL     1      17.044   2.223  19.462  1.00  0.00    -0.206 OA
ATOM     16  N   UNL     1      17.455   6.754  18.242  1.00  0.00    -0.369 N 
ATOM     17  C   UNL     1      13.262   4.859  18.884  1.00  0.00     0.044 C 
ATOM     18  C   UNL     1      18.943   4.409  18.205  1.00  0.00     0.167 C 
ATOM     19  H   UNL     1      17.020   7.636  18.285  1.00  0.00     0.159 HD
ATOM     20  H   UNL     1      18.412   6.687  18.020  1.00  0.00     0.159 HD
ENDBRANCH   1   8
BRANCH   3  21
ATOM     21  N   UNL     1      16.720   5.379  23.489  1.00  0.00    -0.321 N 
ATOM     22  C   UNL     1      18.022   5.156  23.899  1.00  0.00     0.274 C 
ATOM     23  O   UNL     1      18.624   4.096  23.787  1.00  0.00    -0.267 OA
ATOM     24  H   UNL     1      16.331   6.246  23.747  1.00  0.00     0.170 HD
BRANCH  22  25
ATOM     25  C   UNL     1      18.713   6.333  24.480  1.00  0.00     0.128 A 
ATOM     26  N   UNL     1      18.474   7.510  23.895  1.00  0.00    -0.248 NA
ATOM     27  C   UNL     1      19.543   6.174  25.577  1.00  0.00     0.037 A 
ATOM     28  C   UNL     1      19.092   8.590  24.402  1.00  0.00     0.151 A 
ATOM     29  C   UNL     1      20.161   7.305  26.080  1.00  0.00     0.043 A 
ATOM     30  C   UNL     1      19.940   8.532  25.485  1.00  0.00     0.141 A 
ATOM     31  F   UNL     1      20.510   9.659  25.944  1.00  0.00    -0.205 F 
ENDBRANCH  22  25
ENDBRANCH   3  21
TORSDOF 3
ENDMDL
