MODEL 1
REMARK VINA RESULT:    -7.367      0.000      0.000
REMARK INTER + INTRA:         -10.862
REMARK INTER:                  -9.736
REMARK INTRA:                  -1.126
REMARK UNBOUND:                -1.126
REMARK SMILES CCCNC(=O)c1nnc2c(-c3c(F)cccc3OC)cccc2c1N
REMARK SMILES IDX 7 1 8 2 9 3 10 4 24 5 25 6 23 7 22 8 21 9 11 10 5 11 4 12
REMARK SMILES IDX 6 13 3 15 2 16 1 17 26 18 12 21 18 22 13 23 17 24 15 25
REMARK SMILES IDX 16 26 14 27 19 28 20 29
REMARK H PARENT 4 14 26 19 26 20
ROOT
ATOM      1  C   UNL     1     142.740  97.148 138.134  1.00  0.00     0.174 A 
ATOM      2  N   UNL     1     141.535  97.629 137.758  1.00  0.00    -0.142 NA
ATOM      3  N   UNL     1     141.229  97.704 136.428  1.00  0.00    -0.149 NA
ATOM      4  C   UNL     1     142.111  97.337 135.475  1.00  0.00     0.103 A 
ATOM      5  C   UNL     1     143.386  96.841 135.837  1.00  0.00     0.028 A 
ATOM      6  C   UNL     1     143.698  96.700 137.216  1.00  0.00     0.075 A 
ATOM      7  C   UNL     1     144.302  96.512 134.808  1.00  0.00     0.013 A 
ATOM      8  C   UNL     1     143.967  96.640 133.465  1.00  0.00     0.002 A 
ATOM      9  C   UNL     1     142.708  97.105 133.118  1.00  0.00     0.011 A 
ATOM     10  C   UNL     1     141.778  97.457 134.112  1.00  0.00     0.017 A 
ENDROOT
BRANCH   1  11
ATOM     11  C   UNL     1     142.949  97.076 139.618  1.00  0.00     0.273 C 
ATOM     12  N   UNL     1     141.994  96.357 140.310  1.00  0.00    -0.351 N 
ATOM     13  O   UNL     1     143.912  97.614 140.158  1.00  0.00    -0.267 OA
ATOM     14  H   UNL     1     141.236  95.948 139.769  1.00  0.00     0.163 HD
BRANCH  12  15
ATOM     15  C   UNL     1     142.006  96.197 141.748  1.00  0.00     0.116 C 
BRANCH  15  16
ATOM     16  C   UNL     1     141.144  97.241 142.455  1.00  0.00     0.018 C 
ATOM     17  C   UNL     1     141.899  98.011 143.529  1.00  0.00     0.006 C 
ENDBRANCH  15  16
ENDBRANCH  12  15
ENDBRANCH   1  11
BRANCH   6  18
ATOM     18  N   UNL     1     144.997  96.291 137.622  1.00  0.00    -0.396 N 
ATOM     19  H   UNL     1     145.484  95.773 136.878  1.00  0.00     0.156 HD
ATOM     20  H   UNL     1     145.574  97.045 137.980  1.00  0.00     0.156 HD
ENDBRANCH   6  18
BRANCH  10  21
ATOM     21  C   UNL     1     140.453  97.956 133.699  1.00  0.00     0.062 A 
ATOM     22  C   UNL     1     139.381  97.082 133.416  1.00  0.00     0.129 A 
ATOM     23  C   UNL     1     140.238  99.336 133.567  1.00  0.00     0.134 A 
ATOM     24  C   UNL     1     138.140  97.603 133.023  1.00  0.00     0.047 A 
ATOM     25  C   UNL     1     139.007  99.851 133.170  1.00  0.00     0.040 A 
ATOM     26  C   UNL     1     137.957  98.984 132.898  1.00  0.00     0.007 A 
ATOM     27  F   UNL     1     141.230 100.200 133.834  1.00  0.00    -0.206 F 
BRANCH  22  28
ATOM     28  O   UNL     1     139.640  95.742 133.571  1.00  0.00    -0.496 OA
ATOM     29  C   UNL     1     139.660  94.941 132.397  1.00  0.00     0.278 C 
ENDBRANCH  22  28
ENDBRANCH  10  21
TORSDOF 6
ENDMDL
MODEL 2
REMARK VINA RESULT:    -7.119      1.645      2.226
REMARK INTER + INTRA:         -10.534
REMARK INTER:                  -9.406
REMARK INTRA:                  -1.128
REMARK UNBOUND:                -1.126
REMARK SMILES CCCNC(=O)c1nnc2c(-c3c(F)cccc3OC)cccc2c1N
REMARK SMILES IDX 7 1 8 2 9 3 10 4 24 5 25 6 23 7 22 8 21 9 11 10 5 11 4 12
REMARK SMILES IDX 6 13 3 15 2 16 1 17 26 18 12 21 18 22 13 23 17 24 15 25
REMARK SMILES IDX 16 26 14 27 19 28 20 29
REMARK H PARENT 4 14 26 19 26 20
ROOT
ATOM      1  C   UNL     1     142.911  96.728 137.771  1.00  0.00     0.174 A 
ATOM      2  N   UNL     1     141.668  96.991 137.311  1.00  0.00    -0.142 NA
ATOM      3  N   UNL     1     141.398  96.831 135.981  1.00  0.00    -0.149 NA
ATOM      4  C   UNL     1     142.349  96.446 135.105  1.00  0.00     0.103 A 
ATOM      5  C   UNL     1     143.663  96.175 135.554  1.00  0.00     0.028 A 
ATOM      6  C   UNL     1     143.946  96.278 136.942  1.00  0.00     0.075 A 
ATOM      7  C   UNL     1     144.646  95.820 134.597  1.00  0.00     0.013 A 
ATOM      8  C   UNL     1     144.341  95.708 133.245  1.00  0.00     0.002 A 
ATOM      9  C   UNL     1     143.046  95.952 132.816  1.00  0.00     0.011 A 
ATOM     10  C   UNL     1     142.047  96.322 133.734  1.00  0.00     0.017 A 
ENDROOT
BRANCH   1  11
ATOM     11  C   UNL     1     143.079  96.901 139.251  1.00  0.00     0.273 C 
ATOM     12  N   UNL     1     142.251  96.115 140.031  1.00  0.00    -0.351 N 
ATOM     13  O   UNL     1     143.907  97.679 139.718  1.00  0.00    -0.267 OA
ATOM     14  H   UNL     1     141.602  95.501 139.546  1.00  0.00     0.163 HD
BRANCH  12  15
ATOM     15  C   UNL     1     142.245  96.159 141.476  1.00  0.00     0.116 C 
BRANCH  15  16
ATOM     16  C   UNL     1     141.083  96.983 142.027  1.00  0.00     0.018 C 
ATOM     17  C   UNL     1     141.449  97.773 143.275  1.00  0.00     0.006 C 
ENDBRANCH  15  16
ENDBRANCH  12  15
ENDBRANCH   1  11
BRANCH   6  18
ATOM     18  N   UNL     1     145.272  96.102 137.422  1.00  0.00    -0.396 N 
ATOM     19  H   UNL     1     145.319  95.385 138.159  1.00  0.00     0.156 HD
ATOM     20  H   UNL     1     145.954  95.921 136.693  1.00  0.00     0.156 HD
ENDBRANCH   6  18
BRANCH  10  21
ATOM     21  C   UNL     1     140.684  96.582 133.235  1.00  0.00     0.062 A 
ATOM     22  C   UNL     1     140.278  97.865 132.808  1.00  0.00     0.129 A 
ATOM     23  C   UNL     1     139.748  95.538 133.188  1.00  0.00     0.134 A 
ATOM     24  C   UNL     1     138.970  98.065 132.345  1.00  0.00     0.047 A 
ATOM     25  C   UNL     1     138.448  95.741 132.734  1.00  0.00     0.040 A 
ATOM     26  C   UNL     1     138.058  97.005 132.311  1.00  0.00     0.007 A 
ATOM     27  F   UNL     1     140.098  94.303 133.578  1.00  0.00    -0.206 F 
BRANCH  22  28
ATOM     28  O   UNL     1     141.235  98.849 132.863  1.00  0.00    -0.496 OA
ATOM     29  C   UNL     1     141.092  99.841 133.872  1.00  0.00     0.278 C 
ENDBRANCH  22  28
ENDBRANCH  10  21
TORSDOF 6
ENDMDL
MODEL 3
REMARK VINA RESULT:    -6.935      1.835      3.480
REMARK INTER + INTRA:         -10.291
REMARK INTER:                  -9.465
REMARK INTRA:                  -0.826
REMARK UNBOUND:                -1.126
REMARK SMILES CCCNC(=O)c1nnc2c(-c3c(F)cccc3OC)cccc2c1N
REMARK SMILES IDX 7 1 8 2 9 3 10 4 24 5 25 6 23 7 22 8 21 9 11 10 5 11 4 12
REMARK SMILES IDX 6 13 3 15 2 16 1 17 26 18 12 21 18 22 13 23 17 24 15 25
REMARK SMILES IDX 16 26 14 27 19 28 20 29
REMARK H PARENT 4 14 26 19 26 20
ROOT
ATOM      1  C   UNL     1     142.134  96.791 138.522  1.00  0.00     0.174 A 
ATOM      2  N   UNL     1     143.076  96.418 137.627  1.00  0.00    -0.142 NA
ATOM      3  N   UNL     1     142.955  96.811 136.324  1.00  0.00    -0.149 NA
ATOM      4  C   UNL     1     141.901  97.538 135.896  1.00  0.00     0.103 A 
ATOM      5  C   UNL     1     140.893  97.932 136.807  1.00  0.00     0.028 A 
ATOM      6  C   UNL     1     141.034  97.584 138.177  1.00  0.00     0.075 A 
ATOM      7  C   UNL     1     139.778  98.653 136.311  1.00  0.00     0.013 A 
ATOM      8  C   UNL     1     139.671  98.999 134.968  1.00  0.00     0.002 A 
ATOM      9  C   UNL     1     140.675  98.629 134.087  1.00  0.00     0.011 A 
ATOM     10  C   UNL     1     141.788  97.899 134.540  1.00  0.00     0.017 A 
ENDROOT
BRANCH   1  11
ATOM     11  C   UNL     1     142.392  96.336 139.927  1.00  0.00     0.273 C 
ATOM     12  N   UNL     1     142.735  97.338 140.815  1.00  0.00    -0.351 N 
ATOM     13  O   UNL     1     142.289  95.155 140.250  1.00  0.00    -0.267 OA
ATOM     14  H   UNL     1     142.791  98.285 140.448  1.00  0.00     0.163 HD
BRANCH  12  15
ATOM     15  C   UNL     1     143.048  97.096 142.206  1.00  0.00     0.116 C 
BRANCH  15  16
ATOM     16  C   UNL     1     142.139  97.881 143.150  1.00  0.00     0.018 C 
ATOM     17  C   UNL     1     142.894  98.891 144.003  1.00  0.00     0.006 C 
ENDBRANCH  15  16
ENDBRANCH  12  15
ENDBRANCH   1  11
BRANCH   6  18
ATOM     18  N   UNL     1     140.000  97.884 139.106  1.00  0.00    -0.396 N 
ATOM     19  H   UNL     1     139.121  98.132 138.631  1.00  0.00     0.156 HD
ATOM     20  H   UNL     1     139.848  97.160 139.801  1.00  0.00     0.156 HD
ENDBRANCH   6  18
BRANCH  10  21
ATOM     21  C   UNL     1     142.830  97.517 133.567  1.00  0.00     0.062 A 
ATOM     22  C   UNL     1     142.749  96.321 132.821  1.00  0.00     0.129 A 
ATOM     23  C   UNL     1     143.944  98.347 133.376  1.00  0.00     0.134 A 
ATOM     24  C   UNL     1     143.767  95.998 131.911  1.00  0.00     0.047 A 
ATOM     25  C   UNL     1     144.955  98.020 132.477  1.00  0.00     0.040 A 
ATOM     26  C   UNL     1     144.866  96.845 131.743  1.00  0.00     0.007 A 
ATOM     27  F   UNL     1     144.052  99.496 134.062  1.00  0.00    -0.206 F 
BRANCH  22  28
ATOM     28  O   UNL     1     141.635  95.549 133.036  1.00  0.00    -0.496 OA
ATOM     29  C   UNL     1     141.825  94.289 133.667  1.00  0.00     0.278 C 
ENDBRANCH  22  28
ENDBRANCH  10  21
TORSDOF 6
ENDMDL
MODEL 4
REMARK VINA RESULT:    -6.746      2.531      4.455
REMARK INTER + INTRA:         -10.041
REMARK INTER:                  -9.108
REMARK INTRA:                  -0.933
REMARK UNBOUND:                -1.126
REMARK SMILES CCCNC(=O)c1nnc2c(-c3c(F)cccc3OC)cccc2c1N
REMARK SMILES IDX 7 1 8 2 9 3 10 4 24 5 25 6 23 7 22 8 21 9 11 10 5 11 4 12
REMARK SMILES IDX 6 13 3 15 2 16 1 17 26 18 12 21 18 22 13 23 17 24 15 25
REMARK SMILES IDX 16 26 14 27 19 28 20 29
REMARK H PARENT 4 14 26 19 26 20
ROOT
ATOM      1  C   UNL     1     142.184  96.753 139.217  1.00  0.00     0.174 A 
ATOM      2  N   UNL     1     143.232  96.187 138.578  1.00  0.00    -0.142 NA
ATOM      3  N   UNL     1     143.261  96.185 137.212  1.00  0.00    -0.149 NA
ATOM      4  C   UNL     1     142.256  96.709 136.479  1.00  0.00     0.103 A 
ATOM      5  C   UNL     1     141.140  97.297 137.120  1.00  0.00     0.028 A 
ATOM      6  C   UNL     1     141.121  97.361 138.539  1.00  0.00     0.075 A 
ATOM      7  C   UNL     1     140.082  97.792 136.318  1.00  0.00     0.013 A 
ATOM      8  C   UNL     1     140.131  97.736 134.929  1.00  0.00     0.002 A 
ATOM      9  C   UNL     1     141.238  97.179 134.308  1.00  0.00     0.011 A 
ATOM     10  C   UNL     1     142.300  96.662 135.072  1.00  0.00     0.017 A 
ENDROOT
BRANCH   1  11
ATOM     11  C   UNL     1     142.279  96.730 140.714  1.00  0.00     0.273 C 
ATOM     12  N   UNL     1     143.298  97.496 141.248  1.00  0.00    -0.351 N 
ATOM     13  O   UNL     1     141.492  96.082 141.398  1.00  0.00    -0.267 OA
ATOM     14  H   UNL     1     143.894  97.997 140.595  1.00  0.00     0.163 HD
BRANCH  12  15
ATOM     15  C   UNL     1     143.568  97.581 142.666  1.00  0.00     0.116 C 
BRANCH  15  16
ATOM     16  C   UNL     1     142.588  98.502 143.390  1.00  0.00     0.018 C 
ATOM     17  C   UNL     1     143.252  99.362 144.455  1.00  0.00     0.006 C 
ENDBRANCH  15  16
ENDBRANCH  12  15
ENDBRANCH   1  11
BRANCH   6  18
ATOM     18  N   UNL     1     139.981  97.863 139.222  1.00  0.00    -0.396 N 
ATOM     19  H   UNL     1     139.527  98.624 138.699  1.00  0.00     0.156 HD
ATOM     20  H   UNL     1     139.309  97.148 139.483  1.00  0.00     0.156 HD
ENDBRANCH   6  18
BRANCH  10  21
ATOM     21  C   UNL     1     143.455  96.069 134.372  1.00  0.00     0.062 A 
ATOM     22  C   UNL     1     144.575  96.842 133.994  1.00  0.00     0.129 A 
ATOM     23  C   UNL     1     143.452  94.703 134.054  1.00  0.00     0.134 A 
ATOM     24  C   UNL     1     145.648  96.235 133.325  1.00  0.00     0.047 A 
ATOM     25  C   UNL     1     144.515  94.104 133.385  1.00  0.00     0.040 A 
ATOM     26  C   UNL     1     145.615  94.871 133.021  1.00  0.00     0.007 A 
ATOM     27  F   UNL     1     142.409  93.934 134.404  1.00  0.00    -0.206 F 
BRANCH  22  28
ATOM     28  O   UNL     1     144.534  98.171 134.337  1.00  0.00    -0.496 OA
ATOM     29  C   UNL     1     144.157  99.095 133.325  1.00  0.00     0.278 C 
ENDBRANCH  22  28
ENDBRANCH  10  21
TORSDOF 6
ENDMDL
MODEL 5
REMARK VINA RESULT:    -6.665      2.235      3.907
REMARK INTER + INTRA:          -9.934
REMARK INTER:                  -9.290
REMARK INTRA:                  -0.644
REMARK UNBOUND:                -1.126
REMARK SMILES CCCNC(=O)c1nnc2c(-c3c(F)cccc3OC)cccc2c1N
REMARK SMILES IDX 7 1 8 2 9 3 10 4 24 5 25 6 23 7 22 8 21 9 11 10 5 11 4 12
REMARK SMILES IDX 6 13 3 15 2 16 1 17 26 18 12 21 18 22 13 23 17 24 15 25
REMARK SMILES IDX 16 26 14 27 19 28 20 29
REMARK H PARENT 4 14 26 19 26 20
ROOT
ATOM      1  C   UNL     1     142.000  96.968 137.459  1.00  0.00     0.174 A 
ATOM      2  N   UNL     1     142.745  96.303 136.549  1.00  0.00    -0.142 NA
ATOM      3  N   UNL     1     142.339  96.272 135.245  1.00  0.00    -0.149 NA
ATOM      4  C   UNL     1     141.195  96.864 134.843  1.00  0.00     0.103 A 
ATOM      5  C   UNL     1     140.387  97.558 135.775  1.00  0.00     0.028 A 
ATOM      6  C   UNL     1     140.825  97.651 137.123  1.00  0.00     0.075 A 
ATOM      7  C   UNL     1     139.169  98.125 135.325  1.00  0.00     0.013 A 
ATOM      8  C   UNL     1     138.771  98.038 133.996  1.00  0.00     0.002 A 
ATOM      9  C   UNL     1     139.578  97.377 133.085  1.00  0.00     0.011 A 
ATOM     10  C   UNL     1     140.787  96.787 133.497  1.00  0.00     0.017 A 
ENDROOT
BRANCH   1  11
ATOM     11  C   UNL     1     142.563  96.966 138.849  1.00  0.00     0.273 C 
ATOM     12  N   UNL     1     141.772  96.351 139.801  1.00  0.00    -0.351 N 
ATOM     13  O   UNL     1     143.655  97.469 139.102  1.00  0.00    -0.267 OA
ATOM     14  H   UNL     1     140.885  95.964 139.489  1.00  0.00     0.163 HD
BRANCH  12  15
ATOM     15  C   UNL     1     142.129  96.271 141.200  1.00  0.00     0.116 C 
BRANCH  15  16
ATOM     16  C   UNL     1     141.040  96.833 142.111  1.00  0.00     0.018 C 
ATOM     17  C   UNL     1     141.587  97.716 143.223  1.00  0.00     0.006 C 
ENDBRANCH  15  16
ENDBRANCH  12  15
ENDBRANCH   1  11
BRANCH   6  18
ATOM     18  N   UNL     1     140.001  98.260 138.108  1.00  0.00    -0.396 N 
ATOM     19  H   UNL     1     139.001  98.149 137.890  1.00  0.00     0.156 HD
ATOM     20  H   UNL     1     140.203  97.963 139.057  1.00  0.00     0.156 HD
ENDBRANCH   6  18
BRANCH  10  21
ATOM     21  C   UNL     1     141.612  96.085 132.497  1.00  0.00     0.062 A 
ATOM     22  C   UNL     1     142.496  96.777 131.641  1.00  0.00     0.129 A 
ATOM     23  C   UNL     1     141.519  94.691 132.370  1.00  0.00     0.134 A 
ATOM     24  C   UNL     1     143.257  96.067 130.701  1.00  0.00     0.047 A 
ATOM     25  C   UNL     1     142.271  93.989 131.433  1.00  0.00     0.040 A 
ATOM     26  C   UNL     1     143.142  94.677 130.598  1.00  0.00     0.007 A 
ATOM     27  F   UNL     1     140.696  93.997 133.172  1.00  0.00    -0.206 F 
BRANCH  22  28
ATOM     28  O   UNL     1     142.558  98.139 131.811  1.00  0.00    -0.496 OA
ATOM     29  C   UNL     1     143.772  98.678 132.315  1.00  0.00     0.278 C 
ENDBRANCH  22  28
ENDBRANCH  10  21
TORSDOF 6
ENDMDL
MODEL 6
REMARK VINA RESULT:    -6.623      2.103      2.571
REMARK INTER + INTRA:          -9.879
REMARK INTER:                  -9.212
REMARK INTRA:                  -0.667
REMARK UNBOUND:                -1.126
REMARK SMILES CCCNC(=O)c1nnc2c(-c3c(F)cccc3OC)cccc2c1N
REMARK SMILES IDX 7 1 8 2 9 3 10 4 24 5 25 6 23 7 22 8 21 9 11 10 5 11 4 12
REMARK SMILES IDX 6 13 3 15 2 16 1 17 26 18 12 21 18 22 13 23 17 24 15 25
REMARK SMILES IDX 16 26 14 27 19 28 20 29
REMARK H PARENT 4 14 26 19 26 20
ROOT
ATOM      1  C   UNL     1     141.690  96.932 139.095  1.00  0.00     0.174 A 
ATOM      2  N   UNL     1     140.986  97.943 138.538  1.00  0.00    -0.142 NA
ATOM      3  N   UNL     1     140.821  97.976 137.182  1.00  0.00    -0.149 NA
ATOM      4  C   UNL     1     141.368  97.041 136.376  1.00  0.00     0.103 A 
ATOM      5  C   UNL     1     142.120  95.978 136.929  1.00  0.00     0.028 A 
ATOM      6  C   UNL     1     142.251  95.895 138.341  1.00  0.00     0.075 A 
ATOM      7  C   UNL     1     142.720  95.043 136.049  1.00  0.00     0.013 A 
ATOM      8  C   UNL     1     142.561  95.134 134.670  1.00  0.00     0.002 A 
ATOM      9  C   UNL     1     141.804  96.165 134.138  1.00  0.00     0.011 A 
ATOM     10  C   UNL     1     141.207  97.121 134.980  1.00  0.00     0.017 A 
ENDROOT
BRANCH   1  11
ATOM     11  C   UNL     1     141.772  96.979 140.591  1.00  0.00     0.273 C 
ATOM     12  N   UNL     1     143.029  97.243 141.101  1.00  0.00    -0.351 N 
ATOM     13  O   UNL     1     140.781  96.805 141.296  1.00  0.00    -0.267 OA
ATOM     14  H   UNL     1     143.784  97.374 140.433  1.00  0.00     0.163 HD
BRANCH  12  15
ATOM     15  C   UNL     1     143.317  97.302 142.518  1.00  0.00     0.116 C 
BRANCH  15  16
ATOM     16  C   UNL     1     144.055  98.581 142.907  1.00  0.00     0.018 C 
ATOM     17  C   UNL     1     143.401  99.319 144.066  1.00  0.00     0.006 C 
ENDBRANCH  15  16
ENDBRANCH  12  15
ENDBRANCH   1  11
BRANCH   6  18
ATOM     18  N   UNL     1     143.072  94.895 138.931  1.00  0.00    -0.396 N 
ATOM     19  H   UNL     1     143.441  94.241 138.227  1.00  0.00     0.156 HD
ATOM     20  H   UNL     1     143.817  95.264 139.513  1.00  0.00     0.156 HD
ENDBRANCH   6  18
BRANCH  10  21
ATOM     21  C   UNL     1     140.417  98.208 134.371  1.00  0.00     0.062 A 
ATOM     22  C   UNL     1     141.016  99.405 133.922  1.00  0.00     0.129 A 
ATOM     23  C   UNL     1     139.027  98.070 134.240  1.00  0.00     0.134 A 
ATOM     24  C   UNL     1     140.222 100.412 133.355  1.00  0.00     0.047 A 
ATOM     25  C   UNL     1     138.241  99.074 133.682  1.00  0.00     0.040 A 
ATOM     26  C   UNL     1     138.839 100.246 133.238  1.00  0.00     0.007 A 
ATOM     27  F   UNL     1     138.422  96.944 134.649  1.00  0.00    -0.206 F 
BRANCH  22  28
ATOM     28  O   UNL     1     142.380  99.486 134.063  1.00  0.00    -0.496 OA
ATOM     29  C   UNL     1     143.170  99.279 132.900  1.00  0.00     0.278 C 
ENDBRANCH  22  28
ENDBRANCH  10  21
TORSDOF 6
ENDMDL
MODEL 7
REMARK VINA RESULT:    -6.597      2.959      4.928
REMARK INTER + INTRA:          -9.844
REMARK INTER:                  -8.748
REMARK INTRA:                  -1.096
REMARK UNBOUND:                -1.126
REMARK SMILES CCCNC(=O)c1nnc2c(-c3c(F)cccc3OC)cccc2c1N
REMARK SMILES IDX 7 1 8 2 9 3 10 4 24 5 25 6 23 7 22 8 21 9 11 10 5 11 4 12
REMARK SMILES IDX 6 13 3 15 2 16 1 17 26 18 12 21 18 22 13 23 17 24 15 25
REMARK SMILES IDX 16 26 14 27 19 28 20 29
REMARK H PARENT 4 14 26 19 26 20
ROOT
ATOM      1  C   UNL     1     143.912  95.751 135.688  1.00  0.00     0.174 A 
ATOM      2  N   UNL     1     143.177  95.637 134.560  1.00  0.00    -0.142 NA
ATOM      3  N   UNL     1     141.955  96.243 134.493  1.00  0.00    -0.149 NA
ATOM      4  C   UNL     1     141.445  96.930 135.537  1.00  0.00     0.103 A 
ATOM      5  C   UNL     1     142.185  97.056 136.736  1.00  0.00     0.028 A 
ATOM      6  C   UNL     1     143.483  96.483 136.801  1.00  0.00     0.075 A 
ATOM      7  C   UNL     1     141.596  97.743 137.826  1.00  0.00     0.013 A 
ATOM      8  C   UNL     1     140.331  98.312 137.732  1.00  0.00     0.002 A 
ATOM      9  C   UNL     1     139.622  98.204 136.547  1.00  0.00     0.011 A 
ATOM     10  C   UNL     1     140.167  97.516 135.448  1.00  0.00     0.017 A 
ENDROOT
BRANCH   1  11
ATOM     11  C   UNL     1     145.251  95.077 135.632  1.00  0.00     0.273 C 
ATOM     12  N   UNL     1     145.230  93.765 135.199  1.00  0.00    -0.351 N 
ATOM     13  O   UNL     1     146.283  95.669 135.941  1.00  0.00    -0.267 OA
ATOM     14  H   UNL     1     144.324  93.367 134.965  1.00  0.00     0.163 HD
BRANCH  12  15
ATOM     15  C   UNL     1     146.414  92.940 135.103  1.00  0.00     0.116 C 
BRANCH  15  16
ATOM     16  C   UNL     1     146.452  91.853 136.175  1.00  0.00     0.018 C 
ATOM     17  C   UNL     1     145.727  90.580 135.762  1.00  0.00     0.006 C 
ENDBRANCH  15  16
ENDBRANCH  12  15
ENDBRANCH   1  11
BRANCH   6  18
ATOM     18  N   UNL     1     144.222  96.509 138.015  1.00  0.00    -0.396 N 
ATOM     19  H   UNL     1     144.534  97.462 138.251  1.00  0.00     0.156 HD
ATOM     20  H   UNL     1     143.743  96.078 138.799  1.00  0.00     0.156 HD
ENDBRANCH   6  18
BRANCH  10  21
ATOM     21  C   UNL     1     139.375  97.416 134.208  1.00  0.00     0.062 A 
ATOM     22  C   UNL     1     139.405  98.425 133.221  1.00  0.00     0.129 A 
ATOM     23  C   UNL     1     138.553  96.300 133.993  1.00  0.00     0.134 A 
ATOM     24  C   UNL     1     138.630  98.289 132.060  1.00  0.00     0.047 A 
ATOM     25  C   UNL     1     137.780  96.170 132.843  1.00  0.00     0.040 A 
ATOM     26  C   UNL     1     137.820  97.165 131.874  1.00  0.00     0.007 A 
ATOM     27  F   UNL     1     138.503  95.317 134.905  1.00  0.00    -0.206 F 
BRANCH  22  28
ATOM     28  O   UNL     1     140.233  99.491 133.474  1.00  0.00    -0.496 OA
ATOM     29  C   UNL     1     139.666 100.792 133.392  1.00  0.00     0.278 C 
ENDBRANCH  22  28
ENDBRANCH  10  21
TORSDOF 6
ENDMDL
MODEL 8
REMARK VINA RESULT:    -6.553      1.513      3.348
REMARK INTER + INTRA:          -9.787
REMARK INTER:                  -9.119
REMARK INTRA:                  -0.668
REMARK UNBOUND:                -1.126
REMARK SMILES CCCNC(=O)c1nnc2c(-c3c(F)cccc3OC)cccc2c1N
REMARK SMILES IDX 7 1 8 2 9 3 10 4 24 5 25 6 23 7 22 8 21 9 11 10 5 11 4 12
REMARK SMILES IDX 6 13 3 15 2 16 1 17 26 18 12 21 18 22 13 23 17 24 15 25
REMARK SMILES IDX 16 26 14 27 19 28 20 29
REMARK H PARENT 4 14 26 19 26 20
ROOT
ATOM      1  C   UNL     1     142.201  97.141 137.991  1.00  0.00     0.174 A 
ATOM      2  N   UNL     1     143.114  96.658 137.120  1.00  0.00    -0.142 NA
ATOM      3  N   UNL     1     142.889  96.779 135.778  1.00  0.00    -0.149 NA
ATOM      4  C   UNL     1     141.762  97.342 135.295  1.00  0.00     0.103 A 
ATOM      5  C   UNL     1     140.781  97.846 136.182  1.00  0.00     0.028 A 
ATOM      6  C   UNL     1     141.027  97.782 137.580  1.00  0.00     0.075 A 
ATOM      7  C   UNL     1     139.590  98.386 135.638  1.00  0.00     0.013 A 
ATOM      8  C   UNL     1     139.380  98.455 134.265  1.00  0.00     0.002 A 
ATOM      9  C   UNL     1     140.355  97.981 133.402  1.00  0.00     0.011 A 
ATOM     10  C   UNL     1     141.544  97.423 133.906  1.00  0.00     0.017 A 
ENDROOT
BRANCH   1  11
ATOM     11  C   UNL     1     142.572  96.986 139.436  1.00  0.00     0.273 C 
ATOM     12  N   UNL     1     141.656  96.295 140.206  1.00  0.00    -0.351 N 
ATOM     13  O   UNL     1     143.624  97.437 139.881  1.00  0.00    -0.267 OA
ATOM     14  H   UNL     1     140.816  95.960 139.741  1.00  0.00     0.163 HD
BRANCH  12  15
ATOM     15  C   UNL     1     141.822  96.066 141.624  1.00  0.00     0.116 C 
BRANCH  15  16
ATOM     16  C   UNL     1     141.123  97.129 142.469  1.00  0.00     0.018 C 
ATOM     17  C   UNL     1     142.087  97.953 143.310  1.00  0.00     0.006 C 
ENDBRANCH  15  16
ENDBRANCH  12  15
ENDBRANCH   1  11
BRANCH   6  18
ATOM     18  N   UNL     1     140.030  98.194 138.505  1.00  0.00    -0.396 N 
ATOM     19  H   UNL     1     139.083  97.968 138.171  1.00  0.00     0.156 HD
ATOM     20  H   UNL     1     140.176  97.850 139.449  1.00  0.00     0.156 HD
ENDBRANCH   6  18
BRANCH  10  21
ATOM     21  C   UNL     1     142.553  96.922 132.953  1.00  0.00     0.062 A 
ATOM     22  C   UNL     1     142.505  95.608 132.439  1.00  0.00     0.129 A 
ATOM     23  C   UNL     1     143.603  97.758 132.545  1.00  0.00     0.134 A 
ATOM     24  C   UNL     1     143.489  95.174 131.539  1.00  0.00     0.047 A 
ATOM     25  C   UNL     1     144.582  97.323 131.656  1.00  0.00     0.040 A 
ATOM     26  C   UNL     1     144.524  96.030 131.151  1.00  0.00     0.007 A 
ATOM     27  F   UNL     1     143.678  99.017 133.005  1.00  0.00    -0.206 F 
BRANCH  22  28
ATOM     28  O   UNL     1     141.452  94.834 132.861  1.00  0.00    -0.496 OA
ATOM     29  C   UNL     1     140.507  94.426 131.880  1.00  0.00     0.278 C 
ENDBRANCH  22  28
ENDBRANCH  10  21
TORSDOF 6
ENDMDL
MODEL 9
REMARK VINA RESULT:    -6.524      3.818      6.127
REMARK INTER + INTRA:          -9.748
REMARK INTER:                  -8.685
REMARK INTRA:                  -1.063
REMARK UNBOUND:                -1.126
REMARK SMILES CCCNC(=O)c1nnc2c(-c3c(F)cccc3OC)cccc2c1N
REMARK SMILES IDX 7 1 8 2 9 3 10 4 24 5 25 6 23 7 22 8 21 9 11 10 5 11 4 12
REMARK SMILES IDX 6 13 3 15 2 16 1 17 26 18 12 21 18 22 13 23 17 24 15 25
REMARK SMILES IDX 16 26 14 27 19 28 20 29
REMARK H PARENT 4 14 26 19 26 20
ROOT
ATOM      1  C   UNL     1     142.932  96.191 137.933  1.00  0.00     0.174 A 
ATOM      2  N   UNL     1     144.276  96.184 138.078  1.00  0.00    -0.142 NA
ATOM      3  N   UNL     1     145.055  95.697 137.067  1.00  0.00    -0.149 NA
ATOM      4  C   UNL     1     144.518  95.192 135.936  1.00  0.00     0.103 A 
ATOM      5  C   UNL     1     143.114  95.174 135.761  1.00  0.00     0.028 A 
ATOM      6  C   UNL     1     142.292  95.732 136.777  1.00  0.00     0.075 A 
ATOM      7  C   UNL     1     142.586  94.593 134.582  1.00  0.00     0.013 A 
ATOM      8  C   UNL     1     143.412  94.070 133.593  1.00  0.00     0.002 A 
ATOM      9  C   UNL     1     144.787  94.113 133.761  1.00  0.00     0.011 A 
ATOM     10  C   UNL     1     145.347  94.668 134.926  1.00  0.00     0.017 A 
ENDROOT
BRANCH   1  11
ATOM     11  C   UNL     1     142.183  96.783 139.090  1.00  0.00     0.273 C 
ATOM     12  N   UNL     1     142.634  96.400 140.339  1.00  0.00    -0.351 N 
ATOM     13  O   UNL     1     141.247  97.560 138.920  1.00  0.00    -0.267 OA
ATOM     14  H   UNL     1     143.418  95.753 140.372  1.00  0.00     0.163 HD
BRANCH  12  15
ATOM     15  C   UNL     1     142.025  96.842 141.574  1.00  0.00     0.116 C 
BRANCH  15  16
ATOM     16  C   UNL     1     143.009  97.592 142.470  1.00  0.00     0.018 C 
ATOM     17  C   UNL     1     142.331  98.337 143.610  1.00  0.00     0.006 C 
ENDBRANCH  15  16
ENDBRANCH  12  15
ENDBRANCH   1  11
BRANCH   6  18
ATOM     18  N   UNL     1     140.876  95.653 136.681  1.00  0.00    -0.396 N 
ATOM     19  H   UNL     1     140.572  95.396 135.731  1.00  0.00     0.156 HD
ATOM     20  H   UNL     1     140.448  95.050 137.377  1.00  0.00     0.156 HD
ENDBRANCH   6  18
BRANCH  10  21
ATOM     21  C   UNL     1     146.815  94.684 135.069  1.00  0.00     0.062 A 
ATOM     22  C   UNL     1     147.606  95.718 134.522  1.00  0.00     0.129 A 
ATOM     23  C   UNL     1     147.461  93.644 135.754  1.00  0.00     0.134 A 
ATOM     24  C   UNL     1     148.999  95.688 134.679  1.00  0.00     0.047 A 
ATOM     25  C   UNL     1     148.844  93.614 135.904  1.00  0.00     0.040 A 
ATOM     26  C   UNL     1     149.614  94.638 135.366  1.00  0.00     0.007 A 
ATOM     27  F   UNL     1     146.742  92.647 136.294  1.00  0.00    -0.206 F 
BRANCH  22  28
ATOM     28  O   UNL     1     146.925  96.717 133.870  1.00  0.00    -0.496 OA
ATOM     29  C   UNL     1     147.134  96.843 132.470  1.00  0.00     0.278 C 
ENDBRANCH  22  28
ENDBRANCH  10  21
TORSDOF 6
ENDMDL
MODEL 10
REMARK VINA RESULT:    -6.487      2.840      5.174
REMARK INTER + INTRA:          -9.699
REMARK INTER:                  -8.589
REMARK INTRA:                  -1.110
REMARK UNBOUND:                -1.126
REMARK SMILES CCCNC(=O)c1nnc2c(-c3c(F)cccc3OC)cccc2c1N
REMARK SMILES IDX 7 1 8 2 9 3 10 4 24 5 25 6 23 7 22 8 21 9 11 10 5 11 4 12
REMARK SMILES IDX 6 13 3 15 2 16 1 17 26 18 12 21 18 22 13 23 17 24 15 25
REMARK SMILES IDX 16 26 14 27 19 28 20 29
REMARK H PARENT 4 14 26 19 26 20
ROOT
ATOM      1  C   UNL     1     144.024  95.935 135.719  1.00  0.00     0.174 A 
ATOM      2  N   UNL     1     143.305  95.805 134.582  1.00  0.00    -0.142 NA
ATOM      3  N   UNL     1     142.056  96.356 134.513  1.00  0.00    -0.149 NA
ATOM      4  C   UNL     1     141.507  97.003 135.562  1.00  0.00     0.103 A 
ATOM      5  C   UNL     1     142.230  97.144 136.770  1.00  0.00     0.028 A 
ATOM      6  C   UNL     1     143.552  96.629 136.839  1.00  0.00     0.075 A 
ATOM      7  C   UNL     1     141.601  97.786 137.865  1.00  0.00     0.013 A 
ATOM      8  C   UNL     1     140.312  98.299 137.768  1.00  0.00     0.002 A 
ATOM      9  C   UNL     1     139.619  98.178 136.574  1.00  0.00     0.011 A 
ATOM     10  C   UNL     1     140.205  97.532 135.471  1.00  0.00     0.017 A 
ENDROOT
BRANCH   1  11
ATOM     11  C   UNL     1     145.393  95.324 135.665  1.00  0.00     0.273 C 
ATOM     12  N   UNL     1     146.191  95.764 134.627  1.00  0.00    -0.351 N 
ATOM     13  O   UNL     1     145.764  94.502 136.500  1.00  0.00    -0.267 OA
ATOM     14  H   UNL     1     145.790  96.449 133.990  1.00  0.00     0.163 HD
BRANCH  12  15
ATOM     15  C   UNL     1     147.531  95.274 134.391  1.00  0.00     0.116 C 
BRANCH  15  16
ATOM     16  C   UNL     1     148.478  96.377 133.924  1.00  0.00     0.018 C 
ATOM     17  C   UNL     1     147.834  97.340 132.936  1.00  0.00     0.006 C 
ENDBRANCH  15  16
ENDBRANCH  12  15
ENDBRANCH   1  11
BRANCH   6  18
ATOM     18  N   UNL     1     144.279  96.670 138.060  1.00  0.00    -0.396 N 
ATOM     19  H   UNL     1     144.343  95.740 138.497  1.00  0.00     0.156 HD
ATOM     20  H   UNL     1     145.194  97.101 137.981  1.00  0.00     0.156 HD
ENDBRANCH   6  18
BRANCH  10  21
ATOM     21  C   UNL     1     139.428  97.416 134.222  1.00  0.00     0.062 A 
ATOM     22  C   UNL     1     139.472  98.411 133.222  1.00  0.00     0.129 A 
ATOM     23  C   UNL     1     138.608  96.297 134.012  1.00  0.00     0.134 A 
ATOM     24  C   UNL     1     138.712  98.259 132.053  1.00  0.00     0.047 A 
ATOM     25  C   UNL     1     137.851  96.152 132.853  1.00  0.00     0.040 A 
ATOM     26  C   UNL     1     137.903  97.134 131.872  1.00  0.00     0.007 A 
ATOM     27  F   UNL     1     138.546  95.326 134.936  1.00  0.00    -0.206 F 
BRANCH  22  28
ATOM     28  O   UNL     1     140.297  99.481 133.471  1.00  0.00    -0.496 OA
ATOM     29  C   UNL     1     139.698 100.768 133.527  1.00  0.00     0.278 C 
ENDBRANCH  22  28
ENDBRANCH  10  21
TORSDOF 6
ENDMDL
MODEL 11
REMARK VINA RESULT:    -6.387      3.964      6.508
REMARK INTER + INTRA:          -9.566
REMARK INTER:                  -8.725
REMARK INTRA:                  -0.841
REMARK UNBOUND:                -1.126
REMARK SMILES CCCNC(=O)c1nnc2c(-c3c(F)cccc3OC)cccc2c1N
REMARK SMILES IDX 7 1 8 2 9 3 10 4 24 5 25 6 23 7 22 8 21 9 11 10 5 11 4 12
REMARK SMILES IDX 6 13 3 15 2 16 1 17 26 18 12 21 18 22 13 23 17 24 15 25
REMARK SMILES IDX 16 26 14 27 19 28 20 29
REMARK H PARENT 4 14 26 19 26 20
ROOT
ATOM      1  C   UNL     1     145.157  98.592 142.299  1.00  0.00     0.174 A 
ATOM      2  N   UNL     1     145.281  98.436 140.962  1.00  0.00    -0.142 NA
ATOM      3  N   UNL     1     144.236  97.919 140.249  1.00  0.00    -0.149 NA
ATOM      4  C   UNL     1     143.091  97.531 140.847  1.00  0.00     0.103 A 
ATOM      5  C   UNL     1     142.936  97.671 142.247  1.00  0.00     0.028 A 
ATOM      6  C   UNL     1     143.989  98.262 142.995  1.00  0.00     0.075 A 
ATOM      7  C   UNL     1     141.738  97.207 142.845  1.00  0.00     0.013 A 
ATOM      8  C   UNL     1     140.713  96.649 142.089  1.00  0.00     0.002 A 
ATOM      9  C   UNL     1     140.863  96.537 140.716  1.00  0.00     0.011 A 
ATOM     10  C   UNL     1     142.044  96.972 140.089  1.00  0.00     0.017 A 
ENDROOT
BRANCH   1  11
ATOM     11  C   UNL     1     146.351  99.203 142.969  1.00  0.00     0.273 C 
ATOM     12  N   UNL     1     146.527 100.554 142.737  1.00  0.00    -0.351 N 
ATOM     13  O   UNL     1     147.101  98.538 143.680  1.00  0.00    -0.267 OA
ATOM     14  H   UNL     1     145.849 101.014 142.135  1.00  0.00     0.163 HD
BRANCH  12  15
ATOM     15  C   UNL     1     147.633 101.316 143.273  1.00  0.00     0.116 C 
BRANCH  15  16
ATOM     16  C   UNL     1     147.428 101.683 144.741  1.00  0.00     0.018 C 
ATOM     17  C   UNL     1     148.614 101.314 145.621  1.00  0.00     0.006 C 
ENDBRANCH  15  16
ENDBRANCH  12  15
ENDBRANCH   1  11
BRANCH   6  18
ATOM     18  N   UNL     1     143.910  98.338 144.412  1.00  0.00    -0.396 N 
ATOM     19  H   UNL     1     143.051  97.899 144.771  1.00  0.00     0.156 HD
ATOM     20  H   UNL     1     144.731  97.980 144.891  1.00  0.00     0.156 HD
ENDBRANCH   6  18
BRANCH  10  21
ATOM     21  C   UNL     1     142.166  96.825 138.626  1.00  0.00     0.062 A 
ATOM     22  C   UNL     1     141.485  97.679 137.732  1.00  0.00     0.129 A 
ATOM     23  C   UNL     1     142.968  95.806 138.092  1.00  0.00     0.134 A 
ATOM     24  C   UNL     1     141.628  97.498 136.348  1.00  0.00     0.047 A 
ATOM     25  C   UNL     1     143.104  95.625 136.718  1.00  0.00     0.040 A 
ATOM     26  C   UNL     1     142.434  96.472 135.845  1.00  0.00     0.007 A 
ATOM     27  F   UNL     1     143.638  94.979 138.910  1.00  0.00    -0.206 F 
BRANCH  22  28
ATOM     28  O   UNL     1     140.721  98.667 138.305  1.00  0.00    -0.496 OA
ATOM     29  C   UNL     1     139.335  98.683 137.993  1.00  0.00     0.278 C 
ENDBRANCH  22  28
ENDBRANCH  10  21
TORSDOF 6
ENDMDL
MODEL 12
REMARK VINA RESULT:    -6.245      3.573      5.982
REMARK INTER + INTRA:          -9.379
REMARK INTER:                  -8.336
REMARK INTRA:                  -1.043
REMARK UNBOUND:                -1.126
REMARK SMILES CCCNC(=O)c1nnc2c(-c3c(F)cccc3OC)cccc2c1N
REMARK SMILES IDX 7 1 8 2 9 3 10 4 24 5 25 6 23 7 22 8 21 9 11 10 5 11 4 12
REMARK SMILES IDX 6 13 3 15 2 16 1 17 26 18 12 21 18 22 13 23 17 24 15 25
REMARK SMILES IDX 16 26 14 27 19 28 20 29
REMARK H PARENT 4 14 26 19 26 20
ROOT
ATOM      1  C   UNL     1     142.909  96.147 137.879  1.00  0.00     0.174 A 
ATOM      2  N   UNL     1     144.256  96.170 137.997  1.00  0.00    -0.142 NA
ATOM      3  N   UNL     1     145.025  95.688 136.976  1.00  0.00    -0.149 NA
ATOM      4  C   UNL     1     144.477  95.159 135.862  1.00  0.00     0.103 A 
ATOM      5  C   UNL     1     143.070  95.109 135.715  1.00  0.00     0.028 A 
ATOM      6  C   UNL     1     142.256  95.661 136.741  1.00  0.00     0.075 A 
ATOM      7  C   UNL     1     142.532  94.503 134.554  1.00  0.00     0.013 A 
ATOM      8  C   UNL     1     143.349  93.987 133.554  1.00  0.00     0.002 A 
ATOM      9  C   UNL     1     144.726  94.061 133.694  1.00  0.00     0.011 A 
ATOM     10  C   UNL     1     145.297  94.641 134.841  1.00  0.00     0.017 A 
ENDROOT
BRANCH   1  11
ATOM     11  C   UNL     1     142.171  96.736 139.044  1.00  0.00     0.273 C 
ATOM     12  N   UNL     1     142.610  96.322 140.287  1.00  0.00    -0.351 N 
ATOM     13  O   UNL     1     141.253  97.537 138.885  1.00  0.00    -0.267 OA
ATOM     14  H   UNL     1     143.379  95.658 140.311  1.00  0.00     0.163 HD
BRANCH  12  15
ATOM     15  C   UNL     1     142.008  96.757 141.529  1.00  0.00     0.116 C 
BRANCH  15  16
ATOM     16  C   UNL     1     142.996  97.505 142.421  1.00  0.00     0.018 C 
ATOM     17  C   UNL     1     142.316  98.336 143.500  1.00  0.00     0.006 C 
ENDBRANCH  15  16
ENDBRANCH  12  15
ENDBRANCH   1  11
BRANCH   6  18
ATOM     18  N   UNL     1     140.841  95.550 136.674  1.00  0.00    -0.396 N 
ATOM     19  H   UNL     1     140.379  96.454 136.847  1.00  0.00     0.156 HD
ATOM     20  H   UNL     1     140.500  95.123 135.819  1.00  0.00     0.156 HD
ENDBRANCH   6  18
BRANCH  10  21
ATOM     21  C   UNL     1     146.767  94.691 134.954  1.00  0.00     0.062 A 
ATOM     22  C   UNL     1     147.493  93.717 135.673  1.00  0.00     0.129 A 
ATOM     23  C   UNL     1     147.478  95.736 134.347  1.00  0.00     0.134 A 
ATOM     24  C   UNL     1     148.890  93.809 135.758  1.00  0.00     0.047 A 
ATOM     25  C   UNL     1     148.864  95.829 134.437  1.00  0.00     0.040 A 
ATOM     26  C   UNL     1     149.571  94.863 135.142  1.00  0.00     0.007 A 
ATOM     27  F   UNL     1     146.824  96.677 133.647  1.00  0.00    -0.206 F 
BRANCH  22  28
ATOM     28  O   UNL     1     146.751  92.709 136.240  1.00  0.00    -0.496 OA
ATOM     29  C   UNL     1     147.147  91.373 135.962  1.00  0.00     0.278 C 
ENDBRANCH  22  28
ENDBRANCH  10  21
TORSDOF 6
ENDMDL
MODEL 13
REMARK VINA RESULT:    -6.191      2.519      4.598
REMARK INTER + INTRA:          -9.308
REMARK INTER:                  -8.190
REMARK INTRA:                  -1.118
REMARK UNBOUND:                -1.126
REMARK SMILES CCCNC(=O)c1nnc2c(-c3c(F)cccc3OC)cccc2c1N
REMARK SMILES IDX 7 1 8 2 9 3 10 4 24 5 25 6 23 7 22 8 21 9 11 10 5 11 4 12
REMARK SMILES IDX 6 13 3 15 2 16 1 17 26 18 12 21 18 22 13 23 17 24 15 25
REMARK SMILES IDX 16 26 14 27 19 28 20 29
REMARK H PARENT 4 14 26 19 26 20
ROOT
ATOM      1  C   UNL     1     143.959  96.140 135.537  1.00  0.00     0.174 A 
ATOM      2  N   UNL     1     143.479  96.385 134.297  1.00  0.00    -0.142 NA
ATOM      3  N   UNL     1     142.309  97.078 134.157  1.00  0.00    -0.149 NA
ATOM      4  C   UNL     1     141.601  97.500 135.226  1.00  0.00     0.103 A 
ATOM      5  C   UNL     1     142.072  97.248 136.536  1.00  0.00     0.028 A 
ATOM      6  C   UNL     1     143.316  96.582 136.699  1.00  0.00     0.075 A 
ATOM      7  C   UNL     1     141.278  97.664 137.633  1.00  0.00     0.013 A 
ATOM      8  C   UNL     1     140.072  98.332 137.448  1.00  0.00     0.002 A 
ATOM      9  C   UNL     1     139.629  98.596 136.162  1.00  0.00     0.011 A 
ATOM     10  C   UNL     1     140.383  98.184 135.049  1.00  0.00     0.017 A 
ENDROOT
BRANCH   1  11
ATOM     11  C   UNL     1     145.267  95.407 135.566  1.00  0.00     0.273 C 
ATOM     12  N   UNL     1     145.392  94.395 134.634  1.00  0.00    -0.351 N 
ATOM     13  O   UNL     1     146.155  95.706 136.361  1.00  0.00    -0.267 OA
ATOM     14  H   UNL     1     144.599  94.227 134.020  1.00  0.00     0.163 HD
BRANCH  12  15
ATOM     15  C   UNL     1     146.566  93.557 134.523  1.00  0.00     0.116 C 
BRANCH  15  16
ATOM     16  C   UNL     1     146.238  92.075 134.692  1.00  0.00     0.018 C 
ATOM     17  C   UNL     1     144.745  91.782 134.638  1.00  0.00     0.006 C 
ENDBRANCH  15  16
ENDBRANCH  12  15
ENDBRANCH   1  11
BRANCH   6  18
ATOM     18  N   UNL     1     143.780  96.230 137.996  1.00  0.00    -0.396 N 
ATOM     19  H   UNL     1     143.138  95.579 138.467  1.00  0.00     0.156 HD
ATOM     20  H   UNL     1     144.733  95.880 138.012  1.00  0.00     0.156 HD
ENDBRANCH   6  18
BRANCH  10  21
ATOM     21  C   UNL     1     139.871  98.476 133.697  1.00  0.00     0.062 A 
ATOM     22  C   UNL     1     139.068  97.556 132.988  1.00  0.00     0.129 A 
ATOM     23  C   UNL     1     140.192  99.694 133.078  1.00  0.00     0.134 A 
ATOM     24  C   UNL     1     138.608  97.877 131.703  1.00  0.00     0.047 A 
ATOM     25  C   UNL     1     139.739 100.007 131.800  1.00  0.00     0.040 A 
ATOM     26  C   UNL     1     138.946  99.098 131.111  1.00  0.00     0.007 A 
ATOM     27  F   UNL     1     140.947 100.597 133.723  1.00  0.00    -0.206 F 
BRANCH  22  28
ATOM     28  O   UNL     1     138.773  96.385 133.642  1.00  0.00    -0.496 OA
ATOM     29  C   UNL     1     137.426  96.185 134.048  1.00  0.00     0.278 C 
ENDBRANCH  22  28
ENDBRANCH  10  21
TORSDOF 6
ENDMDL
MODEL 14
REMARK VINA RESULT:    -6.184      2.951      5.390
REMARK INTER + INTRA:          -9.299
REMARK INTER:                  -8.415
REMARK INTRA:                  -0.883
REMARK UNBOUND:                -1.126
REMARK SMILES CCCNC(=O)c1nnc2c(-c3c(F)cccc3OC)cccc2c1N
REMARK SMILES IDX 7 1 8 2 9 3 10 4 24 5 25 6 23 7 22 8 21 9 11 10 5 11 4 12
REMARK SMILES IDX 6 13 3 15 2 16 1 17 26 18 12 21 18 22 13 23 17 24 15 25
REMARK SMILES IDX 16 26 14 27 19 28 20 29
REMARK H PARENT 4 14 26 19 26 20
ROOT
ATOM      1  C   UNL     1     142.631  96.755 138.233  1.00  0.00     0.174 A 
ATOM      2  N   UNL     1     143.612  95.831 138.128  1.00  0.00    -0.142 NA
ATOM      3  N   UNL     1     144.164  95.578 136.904  1.00  0.00    -0.149 NA
ATOM      4  C   UNL     1     143.737  96.205 135.788  1.00  0.00     0.103 A 
ATOM      5  C   UNL     1     142.703  97.168 135.864  1.00  0.00     0.028 A 
ATOM      6  C   UNL     1     142.159  97.487 137.137  1.00  0.00     0.075 A 
ATOM      7  C   UNL     1     142.248  97.769 134.665  1.00  0.00     0.013 A 
ATOM      8  C   UNL     1     142.809  97.455 133.432  1.00  0.00     0.002 A 
ATOM      9  C   UNL     1     143.837  96.528 133.369  1.00  0.00     0.011 A 
ATOM     10  C   UNL     1     144.304  95.898 134.536  1.00  0.00     0.017 A 
ENDROOT
BRANCH   1  11
ATOM     11  C   UNL     1     142.128  96.976 139.629  1.00  0.00     0.273 C 
ATOM     12  N   UNL     1     143.088  96.886 140.619  1.00  0.00    -0.351 N 
ATOM     13  O   UNL     1     140.947  97.229 139.855  1.00  0.00    -0.267 OA
ATOM     14  H   UNL     1     144.039  96.674 140.327  1.00  0.00     0.163 HD
BRANCH  12  15
ATOM     15  C   UNL     1     142.795  97.041 142.026  1.00  0.00     0.116 C 
BRANCH  15  16
ATOM     16  C   UNL     1     143.699  98.074 142.697  1.00  0.00     0.018 C 
ATOM     17  C   UNL     1     143.002  98.844 143.810  1.00  0.00     0.006 C 
ENDBRANCH  15  16
ENDBRANCH  12  15
ENDBRANCH   1  11
BRANCH   6  18
ATOM     18  N   UNL     1     141.059  98.382 137.247  1.00  0.00    -0.396 N 
ATOM     19  H   UNL     1     140.421  98.302 136.443  1.00  0.00     0.156 HD
ATOM     20  H   UNL     1     140.553  98.308 138.124  1.00  0.00     0.156 HD
ENDBRANCH   6  18
BRANCH  10  21
ATOM     21  C   UNL     1     145.394  94.910 134.423  1.00  0.00     0.062 A 
ATOM     22  C   UNL     1     146.737  95.300 134.230  1.00  0.00     0.129 A 
ATOM     23  C   UNL     1     145.102  93.540 134.493  1.00  0.00     0.134 A 
ATOM     24  C   UNL     1     147.738  94.324 134.123  1.00  0.00     0.047 A 
ATOM     25  C   UNL     1     146.097  92.573 134.380  1.00  0.00     0.040 A 
ATOM     26  C   UNL     1     147.417  92.965 134.196  1.00  0.00     0.007 A 
ATOM     27  F   UNL     1     143.838  93.130 134.682  1.00  0.00    -0.206 F 
BRANCH  22  28
ATOM     28  O   UNL     1     146.971  96.653 134.179  1.00  0.00    -0.496 OA
ATOM     29  C   UNL     1     147.517  97.175 132.976  1.00  0.00     0.278 C 
ENDBRANCH  22  28
ENDBRANCH  10  21
TORSDOF 6
ENDMDL
MODEL 15
REMARK VINA RESULT:    -6.170      2.372      4.337
REMARK INTER + INTRA:          -9.280
REMARK INTER:                  -8.170
REMARK INTRA:                  -1.109
REMARK UNBOUND:                -1.126
REMARK SMILES CCCNC(=O)c1nnc2c(-c3c(F)cccc3OC)cccc2c1N
REMARK SMILES IDX 7 1 8 2 9 3 10 4 24 5 25 6 23 7 22 8 21 9 11 10 5 11 4 12
REMARK SMILES IDX 6 13 3 15 2 16 1 17 26 18 12 21 18 22 13 23 17 24 15 25
REMARK SMILES IDX 16 26 14 27 19 28 20 29
REMARK H PARENT 4 14 26 19 26 20
ROOT
ATOM      1  C   UNL     1     144.119  96.346 136.603  1.00  0.00     0.174 A 
ATOM      2  N   UNL     1     143.789  96.378 135.293  1.00  0.00    -0.142 NA
ATOM      3  N   UNL     1     142.605  96.945 134.915  1.00  0.00    -0.149 NA
ATOM      4  C   UNL     1     141.738  97.450 135.818  1.00  0.00     0.103 A 
ATOM      5  C   UNL     1     142.051  97.420 137.198  1.00  0.00     0.028 A 
ATOM      6  C   UNL     1     143.304  96.888 137.604  1.00  0.00     0.075 A 
ATOM      7  C   UNL     1     141.095  97.914 138.120  1.00  0.00     0.013 A 
ATOM      8  C   UNL     1     139.882  98.448 137.697  1.00  0.00     0.002 A 
ATOM      9  C   UNL     1     139.594  98.495 136.343  1.00  0.00     0.011 A 
ATOM     10  C   UNL     1     140.511  97.998 135.400  1.00  0.00     0.017 A 
ENDROOT
BRANCH   1  11
ATOM     11  C   UNL     1     145.457  95.735 136.895  1.00  0.00     0.273 C 
ATOM     12  N   UNL     1     145.870  94.771 135.995  1.00  0.00    -0.351 N 
ATOM     13  O   UNL     1     146.129  96.087 137.861  1.00  0.00    -0.267 OA
ATOM     14  H   UNL     1     145.241  94.552 135.227  1.00  0.00     0.163 HD
BRANCH  12  15
ATOM     15  C   UNL     1     147.117  94.048 136.120  1.00  0.00     0.116 C 
BRANCH  15  16
ATOM     16  C   UNL     1     148.270  94.753 135.409  1.00  0.00     0.018 C 
ATOM     17  C   UNL     1     149.574  94.703 136.192  1.00  0.00     0.006 C 
ENDBRANCH  15  16
ENDBRANCH  12  15
ENDBRANCH   1  11
BRANCH   6  18
ATOM     18  N   UNL     1     143.618  96.757 138.984  1.00  0.00    -0.396 N 
ATOM     19  H   UNL     1     143.947  97.646 139.386  1.00  0.00     0.156 HD
ATOM     20  H   UNL     1     142.870  96.359 139.541  1.00  0.00     0.156 HD
ENDBRANCH   6  18
BRANCH  10  21
ATOM     21  C   UNL     1     140.160  98.059 133.968  1.00  0.00     0.062 A 
ATOM     22  C   UNL     1     139.582  96.961 133.295  1.00  0.00     0.129 A 
ATOM     23  C   UNL     1     140.413  99.230 133.237  1.00  0.00     0.134 A 
ATOM     24  C   UNL     1     139.270  97.065 131.931  1.00  0.00     0.047 A 
ATOM     25  C   UNL     1     140.108  99.328 131.883  1.00  0.00     0.040 A 
ATOM     26  C   UNL     1     139.535  98.244 131.229  1.00  0.00     0.007 A 
ATOM     27  F   UNL     1     140.954 100.298 133.844  1.00  0.00    -0.206 F 
BRANCH  22  28
ATOM     28  O   UNL     1     139.345  95.844 134.056  1.00  0.00    -0.496 OA
ATOM     29  C   UNL     1     140.057  94.661 133.719  1.00  0.00     0.278 C 
ENDBRANCH  22  28
ENDBRANCH  10  21
TORSDOF 6
ENDMDL
MODEL 16
REMARK VINA RESULT:    -6.141      4.100      7.246
REMARK INTER + INTRA:          -9.242
REMARK INTER:                  -8.662
REMARK INTRA:                  -0.580
REMARK UNBOUND:                -1.126
REMARK SMILES CCCNC(=O)c1nnc2c(-c3c(F)cccc3OC)cccc2c1N
REMARK SMILES IDX 7 1 8 2 9 3 10 4 24 5 25 6 23 7 22 8 21 9 11 10 5 11 4 12
REMARK SMILES IDX 6 13 3 15 2 16 1 17 26 18 12 21 18 22 13 23 17 24 15 25
REMARK SMILES IDX 16 26 14 27 19 28 20 29
REMARK H PARENT 4 14 26 19 26 20
ROOT
ATOM      1  C   UNL     1     144.885  98.853 143.079  1.00  0.00     0.174 A 
ATOM      2  N   UNL     1     144.983  98.471 141.786  1.00  0.00    -0.142 NA
ATOM      3  N   UNL     1     143.927  97.840 141.192  1.00  0.00    -0.149 NA
ATOM      4  C   UNL     1     142.795  97.557 141.871  1.00  0.00     0.103 A 
ATOM      5  C   UNL     1     142.667  97.933 143.229  1.00  0.00     0.028 A 
ATOM      6  C   UNL     1     143.732  98.644 143.845  1.00  0.00     0.075 A 
ATOM      7  C   UNL     1     141.484  97.576 143.922  1.00  0.00     0.013 A 
ATOM      8  C   UNL     1     140.447  96.897 143.293  1.00  0.00     0.002 A 
ATOM      9  C   UNL     1     140.570  96.553 141.956  1.00  0.00     0.011 A 
ATOM     10  C   UNL     1     141.737  96.876 141.240  1.00  0.00     0.017 A 
ENDROOT
BRANCH   1  11
ATOM     11  C   UNL     1     146.089  99.571 143.611  1.00  0.00     0.273 C 
ATOM     12  N   UNL     1     145.837 100.818 144.151  1.00  0.00    -0.351 N 
ATOM     13  O   UNL     1     147.208  99.066 143.572  1.00  0.00    -0.267 OA
ATOM     14  H   UNL     1     144.874 101.145 144.137  1.00  0.00     0.163 HD
BRANCH  12  15
ATOM     15  C   UNL     1     146.870 101.674 144.690  1.00  0.00     0.116 C 
BRANCH  15  16
ATOM     16  C   UNL     1     147.519 102.546 143.617  1.00  0.00     0.018 C 
ATOM     17  C   UNL     1     148.971 102.178 143.344  1.00  0.00     0.006 C 
ENDBRANCH  15  16
ENDBRANCH  12  15
ENDBRANCH   1  11
BRANCH   6  18
ATOM     18  N   UNL     1     143.681  98.960 145.229  1.00  0.00    -0.396 N 
ATOM     19  H   UNL     1     142.752  98.771 145.630  1.00  0.00     0.156 HD
ATOM     20  H   UNL     1     144.412  98.522 145.780  1.00  0.00     0.156 HD
ENDBRANCH   6  18
BRANCH  10  21
ATOM     21  C   UNL     1     141.830  96.483 139.821  1.00  0.00     0.062 A 
ATOM     22  C   UNL     1     142.404  95.255 139.424  1.00  0.00     0.129 A 
ATOM     23  C   UNL     1     141.353  97.347 138.825  1.00  0.00     0.134 A 
ATOM     24  C   UNL     1     142.475  94.927 138.062  1.00  0.00     0.047 A 
ATOM     25  C   UNL     1     141.431  97.022 137.474  1.00  0.00     0.040 A 
ATOM     26  C   UNL     1     141.992  95.810 137.092  1.00  0.00     0.007 A 
ATOM     27  F   UNL     1     140.794  98.520 139.164  1.00  0.00    -0.206 F 
BRANCH  22  28
ATOM     28  O   UNL     1     142.846  94.441 140.437  1.00  0.00    -0.496 OA
ATOM     29  C   UNL     1     141.970  93.412 140.877  1.00  0.00     0.278 C 
ENDBRANCH  22  28
ENDBRANCH  10  21
TORSDOF 6
ENDMDL
MODEL 17
REMARK VINA RESULT:    -5.961      2.516      4.534
REMARK INTER + INTRA:          -9.004
REMARK INTER:                  -7.970
REMARK INTRA:                  -1.033
REMARK UNBOUND:                -1.126
REMARK SMILES CCCNC(=O)c1nnc2c(-c3c(F)cccc3OC)cccc2c1N
REMARK SMILES IDX 7 1 8 2 9 3 10 4 24 5 25 6 23 7 22 8 21 9 11 10 5 11 4 12
REMARK SMILES IDX 6 13 3 15 2 16 1 17 26 18 12 21 18 22 13 23 17 24 15 25
REMARK SMILES IDX 16 26 14 27 19 28 20 29
REMARK H PARENT 4 14 26 19 26 20
ROOT
ATOM      1  C   UNL     1     143.245  97.039 138.513  1.00  0.00     0.174 A 
ATOM      2  N   UNL     1     144.398  96.728 137.878  1.00  0.00    -0.142 NA
ATOM      3  N   UNL     1     144.392  96.568 136.521  1.00  0.00    -0.149 NA
ATOM      4  C   UNL     1     143.259  96.681 135.797  1.00  0.00     0.103 A 
ATOM      5  C   UNL     1     142.035  96.993 136.435  1.00  0.00     0.028 A 
ATOM      6  C   UNL     1     142.034  97.222 137.837  1.00  0.00     0.075 A 
ATOM      7  C   UNL     1     140.858  97.055 135.648  1.00  0.00     0.013 A 
ATOM      8  C   UNL     1     140.888  96.846 134.273  1.00  0.00     0.002 A 
ATOM      9  C   UNL     1     142.094  96.564 133.653  1.00  0.00     0.011 A 
ATOM     10  C   UNL     1     143.280  96.478 134.403  1.00  0.00     0.017 A 
ENDROOT
BRANCH   1  11
ATOM     11  C   UNL     1     143.380  97.228 139.994  1.00  0.00     0.273 C 
ATOM     12  N   UNL     1     144.370  98.110 140.385  1.00  0.00    -0.351 N 
ATOM     13  O   UNL     1     142.647  96.642 140.787  1.00  0.00    -0.267 OA
ATOM     14  H   UNL     1     144.921  98.545 139.650  1.00  0.00     0.163 HD
BRANCH  12  15
ATOM     15  C   UNL     1     144.671  98.404 141.769  1.00  0.00     0.116 C 
BRANCH  15  16
ATOM     16  C   UNL     1     145.913  99.281 141.918  1.00  0.00     0.018 C 
ATOM     17  C   UNL     1     145.894 100.134 143.178  1.00  0.00     0.006 C 
ENDBRANCH  15  16
ENDBRANCH  12  15
ENDBRANCH   1  11
BRANCH   6  18
ATOM     18  N   UNL     1     140.813  97.449 138.528  1.00  0.00    -0.396 N 
ATOM     19  H   UNL     1     140.016  97.004 138.051  1.00  0.00     0.156 HD
ATOM     20  H   UNL     1     140.840  97.192 139.509  1.00  0.00     0.156 HD
ENDBRANCH   6  18
BRANCH  10  21
ATOM     21  C   UNL     1     144.542  96.166 133.705  1.00  0.00     0.062 A 
ATOM     22  C   UNL     1     145.002  94.840 133.552  1.00  0.00     0.129 A 
ATOM     23  C   UNL     1     145.325  97.206 133.182  1.00  0.00     0.134 A 
ATOM     24  C   UNL     1     146.210  94.593 132.884  1.00  0.00     0.047 A 
ATOM     25  C   UNL     1     146.526  96.959 132.525  1.00  0.00     0.040 A 
ATOM     26  C   UNL     1     146.969  95.651 132.375  1.00  0.00     0.007 A 
ATOM     27  F   UNL     1     144.917  98.479 133.301  1.00  0.00    -0.206 F 
BRANCH  22  28
ATOM     28  O   UNL     1     144.194  93.858 134.072  1.00  0.00    -0.496 OA
ATOM     29  C   UNL     1     144.184  92.602 133.407  1.00  0.00     0.278 C 
ENDBRANCH  22  28
ENDBRANCH  10  21
TORSDOF 6
ENDMDL
MODEL 18
REMARK VINA RESULT:    -5.929      3.602      4.709
REMARK INTER + INTRA:          -8.962
REMARK INTER:                  -8.019
REMARK INTRA:                  -0.942
REMARK UNBOUND:                -1.126
REMARK SMILES CCCNC(=O)c1nnc2c(-c3c(F)cccc3OC)cccc2c1N
REMARK SMILES IDX 7 1 8 2 9 3 10 4 24 5 25 6 23 7 22 8 21 9 11 10 5 11 4 12
REMARK SMILES IDX 6 13 3 15 2 16 1 17 26 18 12 21 18 22 13 23 17 24 15 25
REMARK SMILES IDX 16 26 14 27 19 28 20 29
REMARK H PARENT 4 14 26 19 26 20
ROOT
ATOM      1  C   UNL     1     144.647  95.547 135.762  1.00  0.00     0.174 A 
ATOM      2  N   UNL     1     144.225  96.830 135.719  1.00  0.00    -0.142 NA
ATOM      3  N   UNL     1     143.078  97.135 135.042  1.00  0.00    -0.149 NA
ATOM      4  C   UNL     1     142.368  96.192 134.387  1.00  0.00     0.103 A 
ATOM      5  C   UNL     1     142.792  94.842 134.404  1.00  0.00     0.028 A 
ATOM      6  C   UNL     1     143.949  94.498 135.153  1.00  0.00     0.075 A 
ATOM      7  C   UNL     1     142.048  93.889 133.664  1.00  0.00     0.013 A 
ATOM      8  C   UNL     1     140.908  94.247 132.954  1.00  0.00     0.002 A 
ATOM      9  C   UNL     1     140.485  95.566 132.961  1.00  0.00     0.011 A 
ATOM     10  C   UNL     1     141.208  96.543 133.670  1.00  0.00     0.017 A 
ENDROOT
BRANCH   1  11
ATOM     11  C   UNL     1     145.895  95.327 136.566  1.00  0.00     0.273 C 
ATOM     12  N   UNL     1     147.076  95.594 135.899  1.00  0.00    -0.351 N 
ATOM     13  O   UNL     1     145.850  94.949 137.733  1.00  0.00    -0.267 OA
ATOM     14  H   UNL     1     147.005  95.905 134.933  1.00  0.00     0.163 HD
BRANCH  12  15
ATOM     15  C   UNL     1     148.382  95.417 136.494  1.00  0.00     0.116 C 
BRANCH  15  16
ATOM     16  C   UNL     1     149.444  96.295 135.835  1.00  0.00     0.018 C 
ATOM     17  C   UNL     1     150.324  97.024 136.840  1.00  0.00     0.006 C 
ENDBRANCH  15  16
ENDBRANCH  12  15
ENDBRANCH   1  11
BRANCH   6  18
ATOM     18  N   UNL     1     144.459  93.172 135.123  1.00  0.00    -0.396 N 
ATOM     19  H   UNL     1     145.021  92.999 134.278  1.00  0.00     0.156 HD
ATOM     20  H   UNL     1     144.967  92.906 135.960  1.00  0.00     0.156 HD
ENDBRANCH   6  18
BRANCH  10  21
ATOM     21  C   UNL     1     140.729  97.938 133.644  1.00  0.00     0.062 A 
ATOM     22  C   UNL     1     141.224  98.879 132.716  1.00  0.00     0.129 A 
ATOM     23  C   UNL     1     139.764  98.362 134.570  1.00  0.00     0.134 A 
ATOM     24  C   UNL     1     140.742 100.196 132.732  1.00  0.00     0.047 A 
ATOM     25  C   UNL     1     139.292  99.671 134.589  1.00  0.00     0.040 A 
ATOM     26  C   UNL     1     139.781 100.589 133.668  1.00  0.00     0.007 A 
ATOM     27  F   UNL     1     139.264  97.494 135.464  1.00  0.00    -0.206 F 
BRANCH  22  28
ATOM     28  O   UNL     1     142.159  98.412 131.824  1.00  0.00    -0.496 OA
ATOM     29  C   UNL     1     143.491  98.887 131.967  1.00  0.00     0.278 C 
ENDBRANCH  22  28
ENDBRANCH  10  21
TORSDOF 6
ENDMDL
MODEL 19
REMARK VINA RESULT:    -5.832      3.085      4.590
REMARK INTER + INTRA:          -8.834
REMARK INTER:                  -7.927
REMARK INTRA:                  -0.906
REMARK UNBOUND:                -1.126
REMARK SMILES CCCNC(=O)c1nnc2c(-c3c(F)cccc3OC)cccc2c1N
REMARK SMILES IDX 7 1 8 2 9 3 10 4 24 5 25 6 23 7 22 8 21 9 11 10 5 11 4 12
REMARK SMILES IDX 6 13 3 15 2 16 1 17 26 18 12 21 18 22 13 23 17 24 15 25
REMARK SMILES IDX 16 26 14 27 19 28 20 29
REMARK H PARENT 4 14 26 19 26 20
ROOT
ATOM      1  C   UNL     1     144.442  95.807 135.656  1.00  0.00     0.174 A 
ATOM      2  N   UNL     1     144.041  97.096 135.599  1.00  0.00    -0.142 NA
ATOM      3  N   UNL     1     142.847  97.401 135.008  1.00  0.00    -0.149 NA
ATOM      4  C   UNL     1     142.068  96.451 134.451  1.00  0.00     0.103 A 
ATOM      5  C   UNL     1     142.467  95.094 134.484  1.00  0.00     0.028 A 
ATOM      6  C   UNL     1     143.675  94.752 135.147  1.00  0.00     0.075 A 
ATOM      7  C   UNL     1     141.646  94.131 133.846  1.00  0.00     0.013 A 
ATOM      8  C   UNL     1     140.456  94.487 133.219  1.00  0.00     0.002 A 
ATOM      9  C   UNL     1     140.061  95.815 133.211  1.00  0.00     0.011 A 
ATOM     10  C   UNL     1     140.858  96.801 133.820  1.00  0.00     0.017 A 
ENDROOT
BRANCH   1  11
ATOM     11  C   UNL     1     145.748  95.589 136.361  1.00  0.00     0.273 C 
ATOM     12  N   UNL     1     146.825  95.335 135.534  1.00  0.00    -0.351 N 
ATOM     13  O   UNL     1     145.836  95.649 137.585  1.00  0.00    -0.267 OA
ATOM     14  H   UNL     1     146.647  95.309 134.533  1.00  0.00     0.163 HD
BRANCH  12  15
ATOM     15  C   UNL     1     148.160  95.073 136.025  1.00  0.00     0.116 C 
BRANCH  15  16
ATOM     16  C   UNL     1     149.129  96.209 135.706  1.00  0.00     0.018 C 
ATOM     17  C   UNL     1     149.837  96.754 136.938  1.00  0.00     0.006 C 
ENDBRANCH  15  16
ENDBRANCH  12  15
ENDBRANCH   1  11
BRANCH   6  18
ATOM     18  N   UNL     1     144.156  93.415 135.125  1.00  0.00    -0.396 N 
ATOM     19  H   UNL     1     143.439  92.747 135.440  1.00  0.00     0.156 HD
ATOM     20  H   UNL     1     144.551  93.133 134.234  1.00  0.00     0.156 HD
ENDBRANCH   6  18
BRANCH  10  21
ATOM     21  C   UNL     1     140.405  98.204 133.781  1.00  0.00     0.062 A 
ATOM     22  C   UNL     1     139.639  98.770 134.822  1.00  0.00     0.129 A 
ATOM     23  C   UNL     1     140.726  99.010 132.678  1.00  0.00     0.134 A 
ATOM     24  C   UNL     1     139.227 100.108 134.738  1.00  0.00     0.047 A 
ATOM     25  C   UNL     1     140.311 100.335 132.594  1.00  0.00     0.040 A 
ATOM     26  C   UNL     1     139.561 100.886 133.626  1.00  0.00     0.007 A 
ATOM     27  F   UNL     1     141.460  98.510 131.671  1.00  0.00    -0.206 F 
BRANCH  22  28
ATOM     28  O   UNL     1     139.360  97.943 135.883  1.00  0.00    -0.496 OA
ATOM     29  C   UNL     1     139.920  98.288 137.143  1.00  0.00     0.278 C 
ENDBRANCH  22  28
ENDBRANCH  10  21
TORSDOF 6
ENDMDL
MODEL 20
REMARK VINA RESULT:    -5.808      3.109      5.189
REMARK INTER + INTRA:          -8.801
REMARK INTER:                  -7.690
REMARK INTRA:                  -1.111
REMARK UNBOUND:                -1.126
REMARK SMILES CCCNC(=O)c1nnc2c(-c3c(F)cccc3OC)cccc2c1N
REMARK SMILES IDX 7 1 8 2 9 3 10 4 24 5 25 6 23 7 22 8 21 9 11 10 5 11 4 12
REMARK SMILES IDX 6 13 3 15 2 16 1 17 26 18 12 21 18 22 13 23 17 24 15 25
REMARK SMILES IDX 16 26 14 27 19 28 20 29
REMARK H PARENT 4 14 26 19 26 20
ROOT
ATOM      1  C   UNL     1     145.269  95.016 135.298  1.00  0.00     0.174 A 
ATOM      2  N   UNL     1     144.430  95.430 134.323  1.00  0.00    -0.142 NA
ATOM      3  N   UNL     1     143.438  96.320 134.626  1.00  0.00    -0.149 NA
ATOM      4  C   UNL     1     143.252  96.776 135.883  1.00  0.00     0.103 A 
ATOM      5  C   UNL     1     144.107  96.350 136.928  1.00  0.00     0.028 A 
ATOM      6  C   UNL     1     145.180  95.473 136.618  1.00  0.00     0.075 A 
ATOM      7  C   UNL     1     143.851  96.812 138.242  1.00  0.00     0.013 A 
ATOM      8  C   UNL     1     142.805  97.687 138.517  1.00  0.00     0.002 A 
ATOM      9  C   UNL     1     141.987  98.117 137.485  1.00  0.00     0.011 A 
ATOM     10  C   UNL     1     142.200  97.667 136.170  1.00  0.00     0.017 A 
ENDROOT
BRANCH   1  11
ATOM     11  C   UNL     1     146.340  94.071 134.841  1.00  0.00     0.273 C 
ATOM     12  N   UNL     1     145.884  92.929 134.210  1.00  0.00    -0.351 N 
ATOM     13  O   UNL     1     147.531  94.317 135.012  1.00  0.00    -0.267 OA
ATOM     14  H   UNL     1     144.877  92.820 134.116  1.00  0.00     0.163 HD
BRANCH  12  15
ATOM     15  C   UNL     1     146.760  91.886 133.723  1.00  0.00     0.116 C 
BRANCH  15  16
ATOM     16  C   UNL     1     146.311  90.496 134.169  1.00  0.00     0.018 C 
ATOM     17  C   UNL     1     145.685  90.487 135.556  1.00  0.00     0.006 C 
ENDBRANCH  15  16
ENDBRANCH  12  15
ENDBRANCH   1  11
BRANCH   6  18
ATOM     18  N   UNL     1     146.005  94.952 137.652  1.00  0.00    -0.396 N 
ATOM     19  H   UNL     1     146.968  95.311 137.589  1.00  0.00     0.156 HD
ATOM     20  H   UNL     1     145.628  95.080 138.585  1.00  0.00     0.156 HD
ENDBRANCH   6  18
BRANCH  10  21
ATOM     21  C   UNL     1     141.301  98.142 135.102  1.00  0.00     0.062 A 
ATOM     22  C   UNL     1     140.064  97.516 134.836  1.00  0.00     0.129 A 
ATOM     23  C   UNL     1     141.675  99.238 134.310  1.00  0.00     0.134 A 
ATOM     24  C   UNL     1     139.244  98.001 133.806  1.00  0.00     0.047 A 
ATOM     25  C   UNL     1     140.863  99.713 133.285  1.00  0.00     0.040 A 
ATOM     26  C   UNL     1     139.645  99.094 133.033  1.00  0.00     0.007 A 
ATOM     27  F   UNL     1     142.841  99.864 134.538  1.00  0.00    -0.206 F 
BRANCH  22  28
ATOM     28  O   UNL     1     139.738  96.455 135.645  1.00  0.00    -0.496 OA
ATOM     29  C   UNL     1     139.585  95.185 135.025  1.00  0.00     0.278 C 
ENDBRANCH  22  28
ENDBRANCH  10  21
TORSDOF 6
ENDMDL
