MODEL 1
REMARK VINA RESULT:    -9.494      0.000      0.000
REMARK INTER + INTRA:         -11.472
REMARK INTER:                 -11.159
REMARK INTRA:                  -0.313
REMARK UNBOUND:                -0.313
REMARK SMILES CN1C(N)=N[C@](C)(c2cc(NC(=O)c3ccc(F)cn3)ccc2F)CS1(=O)=O
REMARK SMILES IDX 8 1 9 2 10 3 21 4 22 5 23 6 24 7 6 8 25 9 5 10 26 11 3 12
REMARK SMILES IDX 27 13 2 14 28 15 4 16 7 17 1 18 11 21 12 22 13 23 14 25
REMARK SMILES IDX 20 26 15 27 19 28 16 29 17 30 18 31
REMARK H PARENT 4 19 4 20 11 24
ROOT
ATOM      1  C   UNL     1      22.864  10.532  20.589  1.00  0.00     0.018 A 
ATOM      2  C   UNL     1      24.148  10.148  20.974  1.00  0.00     0.035 A 
ATOM      3  C   UNL     1      25.270  10.520  20.269  1.00  0.00     0.042 A 
ATOM      4  C   UNL     1      25.154  11.286  19.116  1.00  0.00     0.029 A 
ATOM      5  C   UNL     1      23.888  11.679  18.720  1.00  0.00     0.042 A 
ATOM      6  C   UNL     1      22.774  11.325  19.455  1.00  0.00     0.129 A 
ATOM      7  F   UNL     1      21.545  11.748  19.062  1.00  0.00    -0.207 F 
ENDROOT
BRANCH   1   8
ATOM      8  C   UNL     1      21.644  10.107  21.391  1.00  0.00     0.105 C 
ATOM      9  C   UNL     1      20.758  11.241  21.859  1.00  0.00     0.195 C 
ATOM     10  N   UNL     1      22.001   9.250  22.521  1.00  0.00    -0.240 NA
ATOM     11  S   UNL     1      21.633  12.294  22.989  1.00  0.00     0.239 S 
ATOM     12  C   UNL     1      22.432   9.743  23.640  1.00  0.00     0.205 C 
ATOM     13  O   UNL     1      20.633  12.889  23.858  1.00  0.00    -0.206 OA
ATOM     14  N   UNL     1      22.488  11.126  23.920  1.00  0.00    -0.243 N 
ATOM     15  O   UNL     1      22.666  13.031  22.331  1.00  0.00    -0.206 OA
ATOM     16  N   UNL     1      22.853   8.950  24.674  1.00  0.00    -0.369 N 
ATOM     17  C   UNL     1      20.777   9.189  20.524  1.00  0.00     0.044 C 
ATOM     18  C   UNL     1      23.097  11.675  25.148  1.00  0.00     0.167 C 
ATOM     19  H   UNL     1      22.851   7.970  24.575  1.00  0.00     0.159 HD
ATOM     20  H   UNL     1      23.157   9.358  25.516  1.00  0.00     0.159 HD
ENDBRANCH   1   8
BRANCH   3  21
ATOM     21  N   UNL     1      26.500  10.066  20.762  1.00  0.00    -0.321 N 
ATOM     22  C   UNL     1      27.621  10.810  21.087  1.00  0.00     0.274 C 
ATOM     23  O   UNL     1      27.760  12.006  20.869  1.00  0.00    -0.267 OA
ATOM     24  H   UNL     1      26.577   9.093  20.894  1.00  0.00     0.170 HD
BRANCH  22  25
ATOM     25  C   UNL     1      28.696  10.063  21.785  1.00  0.00     0.128 A 
ATOM     26  N   UNL     1      29.685  10.797  22.306  1.00  0.00    -0.248 NA
ATOM     27  C   UNL     1      28.631   8.684  21.876  1.00  0.00     0.037 A 
ATOM     28  C   UNL     1      30.672  10.142  22.939  1.00  0.00     0.151 A 
ATOM     29  C   UNL     1      29.660   8.038  22.540  1.00  0.00     0.043 A 
ATOM     30  C   UNL     1      30.700   8.773  23.076  1.00  0.00     0.141 A 
ATOM     31  F   UNL     1      31.716   8.191  23.737  1.00  0.00    -0.205 F 
ENDBRANCH  22  25
ENDBRANCH   3  21
TORSDOF 3
ENDMDL
MODEL 2
REMARK VINA RESULT:    -8.541      4.783      7.433
REMARK INTER + INTRA:         -10.352
REMARK INTER:                  -9.947
REMARK INTRA:                  -0.405
REMARK UNBOUND:                -0.313
REMARK SMILES CN1C(N)=N[C@](C)(c2cc(NC(=O)c3ccc(F)cn3)ccc2F)CS1(=O)=O
REMARK SMILES IDX 8 1 9 2 10 3 21 4 22 5 23 6 24 7 6 8 25 9 5 10 26 11 3 12
REMARK SMILES IDX 27 13 2 14 28 15 4 16 7 17 1 18 11 21 12 22 13 23 14 25
REMARK SMILES IDX 20 26 15 27 19 28 16 29 17 30 18 31
REMARK H PARENT 4 19 4 20 11 24
ROOT
ATOM      1  C   UNL     1      20.668  12.361  26.774  1.00  0.00     0.018 A 
ATOM      2  C   UNL     1      21.052  12.688  25.475  1.00  0.00     0.035 A 
ATOM      3  C   UNL     1      21.421  11.734  24.553  1.00  0.00     0.042 A 
ATOM      4  C   UNL     1      21.443  10.390  24.904  1.00  0.00     0.029 A 
ATOM      5  C   UNL     1      21.061  10.046  26.188  1.00  0.00     0.042 A 
ATOM      6  C   UNL     1      20.663  11.012  27.092  1.00  0.00     0.129 A 
ATOM      7  F   UNL     1      20.265  10.645  28.337  1.00  0.00    -0.207 F 
ENDROOT
BRANCH   1   8
ATOM      8  C   UNL     1      20.263  13.438  27.768  1.00  0.00     0.105 C 
ATOM      9  C   UNL     1      18.965  13.179  28.500  1.00  0.00     0.195 C 
ATOM     10  N   UNL     1      20.239  14.767  27.158  1.00  0.00    -0.240 NA
ATOM     11  S   UNL     1      17.600  13.149  27.365  1.00  0.00     0.239 S 
ATOM     12  C   UNL     1      19.225  15.179  26.462  1.00  0.00     0.205 C 
ATOM     13  O   UNL     1      16.427  13.560  28.116  1.00  0.00    -0.206 OA
ATOM     14  N   UNL     1      18.020  14.454  26.323  1.00  0.00    -0.243 N 
ATOM     15  O   UNL     1      17.648  12.002  26.513  1.00  0.00    -0.206 OA
ATOM     16  N   UNL     1      19.225  16.384  25.812  1.00  0.00    -0.369 N 
ATOM     17  C   UNL     1      21.358  13.568  28.830  1.00  0.00     0.044 C 
ATOM     18  C   UNL     1      16.925  14.877  25.428  1.00  0.00     0.167 C 
ATOM     19  H   UNL     1      20.021  16.963  25.850  1.00  0.00     0.159 HD
ATOM     20  H   UNL     1      18.430  16.672  25.307  1.00  0.00     0.159 HD
ENDBRANCH   1   8
BRANCH   3  21
ATOM     21  N   UNL     1      21.788  12.197  23.283  1.00  0.00    -0.321 N 
ATOM     22  C   UNL     1      23.056  12.482  22.808  1.00  0.00     0.274 C 
ATOM     23  O   UNL     1      24.075  12.495  23.485  1.00  0.00    -0.267 OA
ATOM     24  H   UNL     1      21.049  12.337  22.647  1.00  0.00     0.170 HD
BRANCH  22  25
ATOM     25  C   UNL     1      23.141  12.751  21.352  1.00  0.00     0.128 A 
ATOM     26  N   UNL     1      24.370  12.893  20.846  1.00  0.00    -0.248 NA
ATOM     27  C   UNL     1      21.984  12.834  20.596  1.00  0.00     0.037 A 
ATOM     28  C   UNL     1      24.472  13.142  19.530  1.00  0.00     0.151 A 
ATOM     29  C   UNL     1      22.122  13.085  19.242  1.00  0.00     0.043 A 
ATOM     30  C   UNL     1      23.381  13.247  18.697  1.00  0.00     0.141 A 
ATOM     31  F   UNL     1      23.564  13.484  17.387  1.00  0.00    -0.205 F 
ENDBRANCH  22  25
ENDBRANCH   3  21
TORSDOF 3
ENDMDL
MODEL 3
REMARK VINA RESULT:    -8.364      3.336      6.964
REMARK INTER + INTRA:         -10.144
REMARK INTER:                  -9.724
REMARK INTRA:                  -0.420
REMARK UNBOUND:                -0.313
REMARK SMILES CN1C(N)=N[C@](C)(c2cc(NC(=O)c3ccc(F)cn3)ccc2F)CS1(=O)=O
REMARK SMILES IDX 8 1 9 2 10 3 21 4 22 5 23 6 24 7 6 8 25 9 5 10 26 11 3 12
REMARK SMILES IDX 27 13 2 14 28 15 4 16 7 17 1 18 11 21 12 22 13 23 14 25
REMARK SMILES IDX 20 26 15 27 19 28 16 29 17 30 18 31
REMARK H PARENT 4 19 4 20 11 24
ROOT
ATOM      1  C   UNL     1      24.065  12.347  19.961  1.00  0.00     0.018 A 
ATOM      2  C   UNL     1      23.582  12.604  21.244  1.00  0.00     0.035 A 
ATOM      3  C   UNL     1      22.472  11.971  21.753  1.00  0.00     0.042 A 
ATOM      4  C   UNL     1      21.770  11.053  20.981  1.00  0.00     0.029 A 
ATOM      5  C   UNL     1      22.236  10.783  19.707  1.00  0.00     0.042 A 
ATOM      6  C   UNL     1      23.371  11.403  19.221  1.00  0.00     0.129 A 
ATOM      7  F   UNL     1      23.825  11.098  17.978  1.00  0.00    -0.207 F 
ENDROOT
BRANCH   1   8
ATOM      8  C   UNL     1      25.297  13.062  19.428  1.00  0.00     0.105 C 
ATOM      9  C   UNL     1      26.406  12.153  18.947  1.00  0.00     0.195 C 
ATOM     10  N   UNL     1      25.825  14.034  20.385  1.00  0.00    -0.240 NA
ATOM     11  S   UNL     1      27.053  11.188  20.288  1.00  0.00     0.239 S 
ATOM     12  C   UNL     1      26.590  13.676  21.369  1.00  0.00     0.205 C 
ATOM     13  O   UNL     1      28.434  10.887  19.953  1.00  0.00    -0.206 OA
ATOM     14  N   UNL     1      27.079  12.362  21.547  1.00  0.00    -0.243 N 
ATOM     15  O   UNL     1      26.107  10.218  20.744  1.00  0.00    -0.206 OA
ATOM     16  N   UNL     1      27.018  14.561  22.322  1.00  0.00    -0.369 N 
ATOM     17  C   UNL     1      24.886  13.937  18.241  1.00  0.00     0.044 C 
ATOM     18  C   UNL     1      27.844  11.942  22.737  1.00  0.00     0.167 C 
ATOM     19  H   UNL     1      26.731  15.502  22.283  1.00  0.00     0.159 HD
ATOM     20  H   UNL     1      27.613  14.257  23.045  1.00  0.00     0.159 HD
ENDBRANCH   1   8
BRANCH   3  21
ATOM     21  N   UNL     1      22.090  12.322  23.054  1.00  0.00    -0.321 N 
ATOM     22  C   UNL     1      22.323  11.633  24.231  1.00  0.00     0.274 C 
ATOM     23  O   UNL     1      22.804  10.510  24.306  1.00  0.00    -0.267 OA
ATOM     24  H   UNL     1      21.593  13.167  23.143  1.00  0.00     0.170 HD
BRANCH  22  25
ATOM     25  C   UNL     1      21.980  12.366  25.473  1.00  0.00     0.128 A 
ATOM     26  N   UNL     1      22.990  12.617  26.313  1.00  0.00    -0.248 NA
ATOM     27  C   UNL     1      20.673  12.760  25.704  1.00  0.00     0.037 A 
ATOM     28  C   UNL     1      22.702  13.277  27.447  1.00  0.00     0.151 A 
ATOM     29  C   UNL     1      20.409  13.444  26.878  1.00  0.00     0.043 A 
ATOM     30  C   UNL     1      21.433  13.704  27.768  1.00  0.00     0.141 A 
ATOM     31  F   UNL     1      21.227  14.372  28.916  1.00  0.00    -0.205 F 
ENDBRANCH  22  25
ENDBRANCH   3  21
TORSDOF 3
ENDMDL
MODEL 4
REMARK VINA RESULT:    -8.308      3.556      7.216
REMARK INTER + INTRA:         -10.078
REMARK INTER:                  -9.748
REMARK INTRA:                  -0.330
REMARK UNBOUND:                -0.313
REMARK SMILES CN1C(N)=N[C@](C)(c2cc(NC(=O)c3ccc(F)cn3)ccc2F)CS1(=O)=O
REMARK SMILES IDX 8 1 9 2 10 3 21 4 22 5 23 6 24 7 6 8 25 9 5 10 26 11 3 12
REMARK SMILES IDX 27 13 2 14 28 15 4 16 7 17 1 18 11 21 12 22 13 23 14 25
REMARK SMILES IDX 20 26 15 27 19 28 16 29 17 30 18 31
REMARK H PARENT 4 19 4 20 11 24
ROOT
ATOM      1  C   UNL     1      22.336  11.740  20.796  1.00  0.00     0.018 A 
ATOM      2  C   UNL     1      22.322  12.144  22.130  1.00  0.00     0.035 A 
ATOM      3  C   UNL     1      21.565  11.504  23.085  1.00  0.00     0.042 A 
ATOM      4  C   UNL     1      20.757  10.428  22.738  1.00  0.00     0.029 A 
ATOM      5  C   UNL     1      20.761  10.011  21.418  1.00  0.00     0.042 A 
ATOM      6  C   UNL     1      21.551  10.643  20.477  1.00  0.00     0.129 A 
ATOM      7  F   UNL     1      21.558  10.196  19.195  1.00  0.00    -0.207 F 
ENDROOT
BRANCH   1   8
ATOM      8  C   UNL     1      23.186  12.466  19.765  1.00  0.00     0.105 C 
ATOM      9  C   UNL     1      23.995  11.568  18.855  1.00  0.00     0.195 C 
ATOM     10  N   UNL     1      24.052  13.471  20.377  1.00  0.00    -0.240 NA
ATOM     11  S   UNL     1      25.194  10.649  19.785  1.00  0.00     0.239 S 
ATOM     12  C   UNL     1      25.183  13.153  20.928  1.00  0.00     0.205 C 
ATOM     13  O   UNL     1      26.294  10.368  18.880  1.00  0.00    -0.206 OA
ATOM     14  N   UNL     1      25.738  11.854  20.888  1.00  0.00    -0.243 N 
ATOM     15  O   UNL     1      24.574   9.672  20.625  1.00  0.00    -0.206 OA
ATOM     16  N   UNL     1      25.962  14.069  21.582  1.00  0.00    -0.369 N 
ATOM     17  C   UNL     1      22.269  13.303  18.869  1.00  0.00     0.044 C 
ATOM     18  C   UNL     1      26.962  11.479  21.624  1.00  0.00     0.167 C 
ATOM     19  H   UNL     1      25.660  15.003  21.662  1.00  0.00     0.159 HD
ATOM     20  H   UNL     1      26.823  13.795  21.972  1.00  0.00     0.159 HD
ENDBRANCH   1   8
BRANCH   3  21
ATOM     21  N   UNL     1      21.639  12.011  24.389  1.00  0.00    -0.321 N 
ATOM     22  C   UNL     1      20.682  12.726  25.086  1.00  0.00     0.274 C 
ATOM     23  O   UNL     1      19.635  13.150  24.612  1.00  0.00    -0.267 OA
ATOM     24  H   UNL     1      22.480  11.836  24.870  1.00  0.00     0.170 HD
BRANCH  22  25
ATOM     25  C   UNL     1      20.974  12.941  26.524  1.00  0.00     0.128 A 
ATOM     26  N   UNL     1      20.697  14.155  27.011  1.00  0.00    -0.248 NA
ATOM     27  C   UNL     1      21.496  11.909  27.285  1.00  0.00     0.037 A 
ATOM     28  C   UNL     1      20.958  14.375  28.310  1.00  0.00     0.151 A 
ATOM     29  C   UNL     1      21.748  12.164  28.621  1.00  0.00     0.043 A 
ATOM     30  C   UNL     1      21.481  13.414  29.145  1.00  0.00     0.141 A 
ATOM     31  F   UNL     1      21.701  13.706  30.439  1.00  0.00    -0.205 F 
ENDBRANCH  22  25
ENDBRANCH   3  21
TORSDOF 3
ENDMDL
MODEL 5
REMARK VINA RESULT:    -8.206      3.680      6.905
REMARK INTER + INTRA:          -9.959
REMARK INTER:                 -10.513
REMARK INTRA:                   0.554
REMARK UNBOUND:                -0.313
REMARK SMILES CN1C(N)=N[C@](C)(c2cc(NC(=O)c3ccc(F)cn3)ccc2F)CS1(=O)=O
REMARK SMILES IDX 8 1 9 2 10 3 21 4 22 5 23 6 24 7 6 8 25 9 5 10 26 11 3 12
REMARK SMILES IDX 27 13 2 14 28 15 4 16 7 17 1 18 11 21 12 22 13 23 14 25
REMARK SMILES IDX 20 26 15 27 19 28 16 29 17 30 18 31
REMARK H PARENT 4 19 4 20 11 24
ROOT
ATOM      1  C   UNL     1      24.250  11.947  20.398  1.00  0.00     0.018 A 
ATOM      2  C   UNL     1      23.901  11.820  21.742  1.00  0.00     0.035 A 
ATOM      3  C   UNL     1      22.658  12.172  22.216  1.00  0.00     0.042 A 
ATOM      4  C   UNL     1      21.700  12.695  21.358  1.00  0.00     0.029 A 
ATOM      5  C   UNL     1      22.027  12.825  20.019  1.00  0.00     0.042 A 
ATOM      6  C   UNL     1      23.267  12.438  19.552  1.00  0.00     0.129 A 
ATOM      7  F   UNL     1      23.553  12.548  18.229  1.00  0.00    -0.207 F 
ENDROOT
BRANCH   1   8
ATOM      8  C   UNL     1      25.631  11.547  19.903  1.00  0.00     0.105 C 
ATOM      9  C   UNL     1      26.753  11.760  20.895  1.00  0.00     0.195 C 
ATOM     10  N   UNL     1      25.962  12.179  18.627  1.00  0.00    -0.240 NA
ATOM     11  S   UNL     1      26.945  13.486  21.263  1.00  0.00     0.239 S 
ATOM     12  C   UNL     1      26.409  13.395  18.565  1.00  0.00     0.205 C 
ATOM     13  O   UNL     1      28.337  13.679  21.629  1.00  0.00    -0.206 OA
ATOM     14  N   UNL     1      26.729  14.174  19.700  1.00  0.00    -0.243 N 
ATOM     15  O   UNL     1      25.839  13.991  22.015  1.00  0.00    -0.206 OA
ATOM     16  N   UNL     1      26.639  14.029  17.374  1.00  0.00    -0.369 N 
ATOM     17  C   UNL     1      25.618  10.056  19.554  1.00  0.00     0.044 C 
ATOM     18  C   UNL     1      27.118  15.595  19.617  1.00  0.00     0.167 C 
ATOM     19  H   UNL     1      26.447  13.568  16.526  1.00  0.00     0.159 HD
ATOM     20  H   UNL     1      26.997  14.947  17.365  1.00  0.00     0.159 HD
ENDBRANCH   1   8
BRANCH   3  21
ATOM     21  N   UNL     1      22.438  11.998  23.589  1.00  0.00    -0.321 N 
ATOM     22  C   UNL     1      23.184  12.488  24.646  1.00  0.00     0.274 C 
ATOM     23  O   UNL     1      24.259  13.063  24.541  1.00  0.00    -0.267 OA
ATOM     24  H   UNL     1      21.651  11.458  23.832  1.00  0.00     0.170 HD
BRANCH  22  25
ATOM     25  C   UNL     1      22.576  12.310  25.987  1.00  0.00     0.128 A 
ATOM     26  N   UNL     1      23.141  12.991  26.989  1.00  0.00    -0.248 NA
ATOM     27  C   UNL     1      21.478  11.481  26.143  1.00  0.00     0.037 A 
ATOM     28  C   UNL     1      22.610  12.842  28.214  1.00  0.00     0.151 A 
ATOM     29  C   UNL     1      20.950  11.353  27.416  1.00  0.00     0.043 A 
ATOM     30  C   UNL     1      21.523  12.037  28.470  1.00  0.00     0.141 A 
ATOM     31  F   UNL     1      21.039  11.951  29.721  1.00  0.00    -0.205 F 
ENDBRANCH  22  25
ENDBRANCH   3  21
TORSDOF 3
ENDMDL
MODEL 6
REMARK VINA RESULT:    -8.043      3.654      7.414
REMARK INTER + INTRA:          -9.767
REMARK INTER:                  -9.391
REMARK INTRA:                  -0.376
REMARK UNBOUND:                -0.313
REMARK SMILES CN1C(N)=N[C@](C)(c2cc(NC(=O)c3ccc(F)cn3)ccc2F)CS1(=O)=O
REMARK SMILES IDX 8 1 9 2 10 3 21 4 22 5 23 6 24 7 6 8 25 9 5 10 26 11 3 12
REMARK SMILES IDX 27 13 2 14 28 15 4 16 7 17 1 18 11 21 12 22 13 23 14 25
REMARK SMILES IDX 20 26 15 27 19 28 16 29 17 30 18 31
REMARK H PARENT 4 19 4 20 11 24
ROOT
ATOM      1  C   UNL     1      25.960  12.635  20.405  1.00  0.00     0.018 A 
ATOM      2  C   UNL     1      25.044  12.639  21.455  1.00  0.00     0.035 A 
ATOM      3  C   UNL     1      24.161  11.605  21.666  1.00  0.00     0.042 A 
ATOM      4  C   UNL     1      24.139  10.512  20.808  1.00  0.00     0.029 A 
ATOM      5  C   UNL     1      25.044  10.490  19.762  1.00  0.00     0.042 A 
ATOM      6  C   UNL     1      25.946  11.520  19.582  1.00  0.00     0.129 A 
ATOM      7  F   UNL     1      26.844  11.459  18.564  1.00  0.00    -0.207 F 
ENDROOT
BRANCH   1   8
ATOM      8  C   UNL     1      26.925  13.793  20.200  1.00  0.00     0.105 C 
ATOM      9  C   UNL     1      28.389  13.411  20.184  1.00  0.00     0.195 C 
ATOM     10  N   UNL     1      26.698  14.872  21.159  1.00  0.00    -0.240 NA
ATOM     11  S   UNL     1      28.883  12.752  21.756  1.00  0.00     0.239 S 
ATOM     12  C   UNL     1      27.178  14.826  22.364  1.00  0.00     0.205 C 
ATOM     13  O   UNL     1      30.300  13.032  21.896  1.00  0.00    -0.206 OA
ATOM     14  N   UNL     1      28.046  13.811  22.825  1.00  0.00    -0.243 N 
ATOM     15  O   UNL     1      28.288  11.476  22.004  1.00  0.00    -0.206 OA
ATOM     16  N   UNL     1      26.900  15.786  23.299  1.00  0.00    -0.369 N 
ATOM     17  C   UNL     1      26.620  14.459  18.855  1.00  0.00     0.044 C 
ATOM     18  C   UNL     1      28.483  13.704  24.231  1.00  0.00     0.167 C 
ATOM     19  H   UNL     1      26.304  16.536  23.071  1.00  0.00     0.159 HD
ATOM     20  H   UNL     1      27.297  15.728  24.198  1.00  0.00     0.159 HD
ENDBRANCH   1   8
BRANCH   3  21
ATOM     21  N   UNL     1      23.290  11.734  22.756  1.00  0.00    -0.321 N 
ATOM     22  C   UNL     1      22.034  12.313  22.786  1.00  0.00     0.274 C 
ATOM     23  O   UNL     1      21.522  12.934  21.864  1.00  0.00    -0.267 OA
ATOM     24  H   UNL     1      23.614  11.367  23.610  1.00  0.00     0.170 HD
BRANCH  22  25
ATOM     25  C   UNL     1      21.272  12.107  24.042  1.00  0.00     0.128 A 
ATOM     26  N   UNL     1      21.781  12.669  25.143  1.00  0.00    -0.248 NA
ATOM     27  C   UNL     1      20.097  11.376  24.025  1.00  0.00     0.037 A 
ATOM     28  C   UNL     1      21.110  12.493  26.293  1.00  0.00     0.151 A 
ATOM     29  C   UNL     1      19.425  11.217  25.225  1.00  0.00     0.043 A 
ATOM     30  C   UNL     1      19.937  11.778  26.379  1.00  0.00     0.141 A 
ATOM     31  F   UNL     1      19.316  11.658  27.565  1.00  0.00    -0.205 F 
ENDBRANCH  22  25
ENDBRANCH   3  21
TORSDOF 3
ENDMDL
MODEL 7
REMARK VINA RESULT:    -8.012      4.491      6.402
REMARK INTER + INTRA:          -9.731
REMARK INTER:                 -10.039
REMARK INTRA:                   0.308
REMARK UNBOUND:                -0.313
REMARK SMILES CN1C(N)=N[C@](C)(c2cc(NC(=O)c3ccc(F)cn3)ccc2F)CS1(=O)=O
REMARK SMILES IDX 8 1 9 2 10 3 21 4 22 5 23 6 24 7 6 8 25 9 5 10 26 11 3 12
REMARK SMILES IDX 27 13 2 14 28 15 4 16 7 17 1 18 11 21 12 22 13 23 14 25
REMARK SMILES IDX 20 26 15 27 19 28 16 29 17 30 18 31
REMARK H PARENT 4 19 4 20 11 24
ROOT
ATOM      1  C   UNL     1      19.395  12.169  25.025  1.00  0.00     0.018 A 
ATOM      2  C   UNL     1      20.277  12.610  24.039  1.00  0.00     0.035 A 
ATOM      3  C   UNL     1      20.747  11.779  23.047  1.00  0.00     0.042 A 
ATOM      4  C   UNL     1      20.367  10.443  23.009  1.00  0.00     0.029 A 
ATOM      5  C   UNL     1      19.490   9.989  23.978  1.00  0.00     0.042 A 
ATOM      6  C   UNL     1      19.001  10.842  24.949  1.00  0.00     0.129 A 
ATOM      7  F   UNL     1      18.118  10.378  25.870  1.00  0.00    -0.207 F 
ENDROOT
BRANCH   1   8
ATOM      8  C   UNL     1      18.891  13.111  26.107  1.00  0.00     0.105 C 
ATOM      9  C   UNL     1      19.798  14.284  26.408  1.00  0.00     0.195 C 
ATOM     10  N   UNL     1      18.560  12.403  27.342  1.00  0.00    -0.240 NA
ATOM     11  S   UNL     1      21.351  13.725  27.058  1.00  0.00     0.239 S 
ATOM     12  C   UNL     1      19.472  12.073  28.204  1.00  0.00     0.205 C 
ATOM     13  O   UNL     1      21.857  14.794  27.901  1.00  0.00    -0.206 OA
ATOM     14  N   UNL     1      20.827  12.459  28.101  1.00  0.00    -0.243 N 
ATOM     15  O   UNL     1      22.127  13.050  26.065  1.00  0.00    -0.206 OA
ATOM     16  N   UNL     1      19.188  11.333  29.321  1.00  0.00    -0.369 N 
ATOM     17  C   UNL     1      17.541  13.688  25.670  1.00  0.00     0.044 C 
ATOM     18  C   UNL     1      21.874  11.974  29.021  1.00  0.00     0.167 C 
ATOM     19  H   UNL     1      18.270  11.017  29.481  1.00  0.00     0.159 HD
ATOM     20  H   UNL     1      19.903  11.117  29.963  1.00  0.00     0.159 HD
ENDBRANCH   1   8
BRANCH   3  21
ATOM     21  N   UNL     1      21.630  12.347  22.120  1.00  0.00    -0.321 N 
ATOM     22  C   UNL     1      23.001  12.186  22.032  1.00  0.00     0.274 C 
ATOM     23  O   UNL     1      23.696  11.604  22.855  1.00  0.00    -0.267 OA
ATOM     24  H   UNL     1      21.222  12.936  21.444  1.00  0.00     0.170 HD
BRANCH  22  25
ATOM     25  C   UNL     1      23.628  12.749  20.811  1.00  0.00     0.128 A 
ATOM     26  N   UNL     1      24.931  13.035  20.892  1.00  0.00    -0.248 NA
ATOM     27  C   UNL     1      22.868  12.941  19.670  1.00  0.00     0.037 A 
ATOM     28  C   UNL     1      25.520  13.550  19.800  1.00  0.00     0.151 A 
ATOM     29  C   UNL     1      23.505  13.467  18.560  1.00  0.00     0.043 A 
ATOM     30  C   UNL     1      24.848  13.782  18.622  1.00  0.00     0.141 A 
ATOM     31  F   UNL     1      25.511  14.287  17.567  1.00  0.00    -0.205 F 
ENDBRANCH  22  25
ENDBRANCH   3  21
TORSDOF 3
ENDMDL
MODEL 8
REMARK VINA RESULT:    -7.965      5.076      7.837
REMARK INTER + INTRA:          -9.675
REMARK INTER:                  -9.481
REMARK INTRA:                  -0.194
REMARK UNBOUND:                -0.313
REMARK SMILES CN1C(N)=N[C@](C)(c2cc(NC(=O)c3ccc(F)cn3)ccc2F)CS1(=O)=O
REMARK SMILES IDX 8 1 9 2 10 3 21 4 22 5 23 6 24 7 6 8 25 9 5 10 26 11 3 12
REMARK SMILES IDX 27 13 2 14 28 15 4 16 7 17 1 18 11 21 12 22 13 23 14 25
REMARK SMILES IDX 20 26 15 27 19 28 16 29 17 30 18 31
REMARK H PARENT 4 19 4 20 11 24
ROOT
ATOM      1  C   UNL     1      20.418  12.650  26.934  1.00  0.00     0.018 A 
ATOM      2  C   UNL     1      20.901  12.666  25.627  1.00  0.00     0.035 A 
ATOM      3  C   UNL     1      21.280  11.518  24.968  1.00  0.00     0.042 A 
ATOM      4  C   UNL     1      21.212  10.286  25.606  1.00  0.00     0.029 A 
ATOM      5  C   UNL     1      20.732  10.251  26.903  1.00  0.00     0.042 A 
ATOM      6  C   UNL     1      20.325  11.407  27.541  1.00  0.00     0.129 A 
ATOM      7  F   UNL     1      19.830  11.342  28.803  1.00  0.00    -0.207 F 
ENDROOT
BRANCH   1   8
ATOM      8  C   UNL     1      20.004  13.935  27.634  1.00  0.00     0.105 C 
ATOM      9  C   UNL     1      18.723  13.846  28.434  1.00  0.00     0.195 C 
ATOM     10  N   UNL     1      19.941  15.067  26.711  1.00  0.00    -0.240 NA
ATOM     11  S   UNL     1      17.343  13.507  27.371  1.00  0.00     0.239 S 
ATOM     12  C   UNL     1      18.907  15.273  25.954  1.00  0.00     0.205 C 
ATOM     13  O   UNL     1      16.173  14.073  28.019  1.00  0.00    -0.206 OA
ATOM     14  N   UNL     1      17.717  14.515  26.026  1.00  0.00    -0.243 N 
ATOM     15  O   UNL     1      17.403  12.184  26.834  1.00  0.00    -0.206 OA
ATOM     16  N   UNL     1      18.871  16.276  25.023  1.00  0.00    -0.369 N 
ATOM     17  C   UNL     1      21.113  14.348  28.607  1.00  0.00     0.044 C 
ATOM     18  C   UNL     1      16.599  14.680  25.076  1.00  0.00     0.167 C 
ATOM     19  H   UNL     1      19.654  16.859  24.898  1.00  0.00     0.159 HD
ATOM     20  H   UNL     1      18.063  16.414  24.478  1.00  0.00     0.159 HD
ENDBRANCH   1   8
BRANCH   3  21
ATOM     21  N   UNL     1      21.750  11.673  23.657  1.00  0.00    -0.321 N 
ATOM     22  C   UNL     1      21.240  11.125  22.494  1.00  0.00     0.274 C 
ATOM     23  O   UNL     1      20.346  10.290  22.441  1.00  0.00    -0.267 OA
ATOM     24  H   UNL     1      22.544  12.245  23.551  1.00  0.00     0.170 HD
BRANCH  22  25
ATOM     25  C   UNL     1      21.831  11.645  21.237  1.00  0.00     0.128 A 
ATOM     26  N   UNL     1      22.357  10.737  20.408  1.00  0.00    -0.248 NA
ATOM     27  C   UNL     1      21.807  13.004  20.973  1.00  0.00     0.037 A 
ATOM     28  C   UNL     1      22.902  11.185  19.266  1.00  0.00     0.151 A 
ATOM     29  C   UNL     1      22.371  13.434  19.785  1.00  0.00     0.043 A 
ATOM     30  C   UNL     1      22.932  12.517  18.917  1.00  0.00     0.141 A 
ATOM     31  F   UNL     1      23.482  12.887  17.748  1.00  0.00    -0.205 F 
ENDBRANCH  22  25
ENDBRANCH   3  21
TORSDOF 3
ENDMDL
MODEL 9
REMARK VINA RESULT:    -7.860      4.227      5.152
REMARK INTER + INTRA:          -9.552
REMARK INTER:                  -9.167
REMARK INTRA:                  -0.384
REMARK UNBOUND:                -0.313
REMARK SMILES CN1C(N)=N[C@](C)(c2cc(NC(=O)c3ccc(F)cn3)ccc2F)CS1(=O)=O
REMARK SMILES IDX 8 1 9 2 10 3 21 4 22 5 23 6 24 7 6 8 25 9 5 10 26 11 3 12
REMARK SMILES IDX 27 13 2 14 28 15 4 16 7 17 1 18 11 21 12 22 13 23 14 25
REMARK SMILES IDX 20 26 15 27 19 28 16 29 17 30 18 31
REMARK H PARENT 4 19 4 20 11 24
ROOT
ATOM      1  C   UNL     1      26.061  12.262  20.026  1.00  0.00     0.018 A 
ATOM      2  C   UNL     1      26.352  12.784  21.285  1.00  0.00     0.035 A 
ATOM      3  C   UNL     1      27.154  13.890  21.456  1.00  0.00     0.042 A 
ATOM      4  C   UNL     1      27.726  14.520  20.358  1.00  0.00     0.029 A 
ATOM      5  C   UNL     1      27.445  14.018  19.100  1.00  0.00     0.042 A 
ATOM      6  C   UNL     1      26.613  12.927  18.942  1.00  0.00     0.129 A 
ATOM      7  F   UNL     1      26.329  12.472  17.694  1.00  0.00    -0.207 F 
ENDROOT
BRANCH   1   8
ATOM      8  C   UNL     1      25.169  11.040  19.869  1.00  0.00     0.105 C 
ATOM      9  C   UNL     1      24.012  11.210  18.910  1.00  0.00     0.195 C 
ATOM     10  N   UNL     1      24.685  10.546  21.157  1.00  0.00    -0.240 NA
ATOM     11  S   UNL     1      22.888  12.452  19.497  1.00  0.00     0.239 S 
ATOM     12  C   UNL     1      23.665  11.081  21.753  1.00  0.00     0.205 C 
ATOM     13  O   UNL     1      21.580  12.112  18.965  1.00  0.00    -0.206 OA
ATOM     14  N   UNL     1      22.862  12.093  21.181  1.00  0.00    -0.243 N 
ATOM     15  O   UNL     1      23.466  13.758  19.435  1.00  0.00    -0.206 OA
ATOM     16  N   UNL     1      23.256  10.686  22.999  1.00  0.00    -0.369 N 
ATOM     17  C   UNL     1      26.015   9.874  19.350  1.00  0.00     0.044 C 
ATOM     18  C   UNL     1      21.783  12.778  21.919  1.00  0.00     0.167 C 
ATOM     19  H   UNL     1      23.752   9.986  23.481  1.00  0.00     0.159 HD
ATOM     20  H   UNL     1      22.466  11.103  23.413  1.00  0.00     0.159 HD
ENDBRANCH   1   8
BRANCH   3  21
ATOM     21  N   UNL     1      27.370  14.311  22.775  1.00  0.00    -0.321 N 
ATOM     22  C   UNL     1      28.265  13.805  23.700  1.00  0.00     0.274 C 
ATOM     23  O   UNL     1      28.941  12.795  23.547  1.00  0.00    -0.267 OA
ATOM     24  H   UNL     1      26.814  15.063  23.082  1.00  0.00     0.170 HD
BRANCH  22  25
ATOM     25  C   UNL     1      28.408  14.600  24.943  1.00  0.00     0.128 A 
ATOM     26  N   UNL     1      29.614  14.585  25.522  1.00  0.00    -0.248 NA
ATOM     27  C   UNL     1      27.328  15.313  25.436  1.00  0.00     0.037 A 
ATOM     28  C   UNL     1      29.766  15.295  26.652  1.00  0.00     0.151 A 
ATOM     29  C   UNL     1      27.519  16.039  26.598  1.00  0.00     0.043 A 
ATOM     30  C   UNL     1      28.751  16.029  27.222  1.00  0.00     0.141 A 
ATOM     31  F   UNL     1      28.986  16.726  28.347  1.00  0.00    -0.205 F 
ENDBRANCH  22  25
ENDBRANCH   3  21
TORSDOF 3
ENDMDL
MODEL 10
REMARK VINA RESULT:    -7.740      3.934      4.636
REMARK INTER + INTRA:          -9.411
REMARK INTER:                  -9.820
REMARK INTRA:                   0.409
REMARK UNBOUND:                -0.313
REMARK SMILES CN1C(N)=N[C@](C)(c2cc(NC(=O)c3ccc(F)cn3)ccc2F)CS1(=O)=O
REMARK SMILES IDX 8 1 9 2 10 3 21 4 22 5 23 6 24 7 6 8 25 9 5 10 26 11 3 12
REMARK SMILES IDX 27 13 2 14 28 15 4 16 7 17 1 18 11 21 12 22 13 23 14 25
REMARK SMILES IDX 20 26 15 27 19 28 16 29 17 30 18 31
REMARK H PARENT 4 19 4 20 11 24
ROOT
ATOM      1  C   UNL     1      24.106  12.075  20.718  1.00  0.00     0.018 A 
ATOM      2  C   UNL     1      24.785  12.928  21.587  1.00  0.00     0.035 A 
ATOM      3  C   UNL     1      26.120  12.769  21.881  1.00  0.00     0.042 A 
ATOM      4  C   UNL     1      26.843  11.720  21.326  1.00  0.00     0.029 A 
ATOM      5  C   UNL     1      26.186  10.866  20.458  1.00  0.00     0.042 A 
ATOM      6  C   UNL     1      24.854  11.056  20.148  1.00  0.00     0.129 A 
ATOM      7  F   UNL     1      24.240  10.221  19.271  1.00  0.00    -0.207 F 
ENDROOT
BRANCH   1   8
ATOM      8  C   UNL     1      22.630  12.278  20.412  1.00  0.00     0.105 C 
ATOM      9  C   UNL     1      21.857  13.041  21.464  1.00  0.00     0.195 C 
ATOM     10  N   UNL     1      21.955  11.018  20.107  1.00  0.00    -0.240 NA
ATOM     11  S   UNL     1      21.827  12.143  22.994  1.00  0.00     0.239 S 
ATOM     12  C   UNL     1      21.540  10.223  21.044  1.00  0.00     0.205 C 
ATOM     13  O   UNL     1      20.610  12.537  23.682  1.00  0.00    -0.206 OA
ATOM     14  N   UNL     1      21.590  10.537  22.420  1.00  0.00    -0.243 N 
ATOM     15  O   UNL     1      23.118  12.100  23.606  1.00  0.00    -0.206 OA
ATOM     16  N   UNL     1      20.986   9.001  20.773  1.00  0.00    -0.369 N 
ATOM     17  C   UNL     1      22.501  13.063  19.103  1.00  0.00     0.044 C 
ATOM     18  C   UNL     1      21.230   9.574  23.479  1.00  0.00     0.167 C 
ATOM     19  H   UNL     1      20.907   8.692  19.841  1.00  0.00     0.159 HD
ATOM     20  H   UNL     1      20.666   8.431  21.509  1.00  0.00     0.159 HD
ENDBRANCH   1   8
BRANCH   3  21
ATOM     21  N   UNL     1      26.682  13.693  22.772  1.00  0.00    -0.321 N 
ATOM     22  C   UNL     1      26.608  13.705  24.153  1.00  0.00     0.274 C 
ATOM     23  O   UNL     1      25.913  12.957  24.828  1.00  0.00    -0.267 OA
ATOM     24  H   UNL     1      27.194  14.428  22.362  1.00  0.00     0.170 HD
BRANCH  22  25
ATOM     25  C   UNL     1      27.484  14.695  24.825  1.00  0.00     0.128 A 
ATOM     26  N   UNL     1      28.538  14.203  25.485  1.00  0.00    -0.248 NA
ATOM     27  C   UNL     1      27.194  16.046  24.738  1.00  0.00     0.037 A 
ATOM     28  C   UNL     1      29.343  15.081  26.106  1.00  0.00     0.151 A 
ATOM     29  C   UNL     1      28.045  16.926  25.383  1.00  0.00     0.043 A 
ATOM     30  C   UNL     1      29.134  16.441  26.082  1.00  0.00     0.141 A 
ATOM     31  F   UNL     1      29.994  17.258  26.715  1.00  0.00    -0.205 F 
ENDBRANCH  22  25
ENDBRANCH   3  21
TORSDOF 3
ENDMDL
MODEL 11
REMARK VINA RESULT:    -7.711      5.480      8.374
REMARK INTER + INTRA:          -9.377
REMARK INTER:                  -9.073
REMARK INTRA:                  -0.303
REMARK UNBOUND:                -0.313
REMARK SMILES CN1C(N)=N[C@](C)(c2cc(NC(=O)c3ccc(F)cn3)ccc2F)CS1(=O)=O
REMARK SMILES IDX 8 1 9 2 10 3 21 4 22 5 23 6 24 7 6 8 25 9 5 10 26 11 3 12
REMARK SMILES IDX 27 13 2 14 28 15 4 16 7 17 1 18 11 21 12 22 13 23 14 25
REMARK SMILES IDX 20 26 15 27 19 28 16 29 17 30 18 31
REMARK H PARENT 4 19 4 20 11 24
ROOT
ATOM      1  C   UNL     1      20.055  14.175  26.868  1.00  0.00     0.018 A 
ATOM      2  C   UNL     1      20.046  13.534  25.630  1.00  0.00     0.035 A 
ATOM      3  C   UNL     1      20.838  12.441  25.362  1.00  0.00     0.042 A 
ATOM      4  C   UNL     1      21.705  11.946  26.328  1.00  0.00     0.029 A 
ATOM      5  C   UNL     1      21.725  12.568  27.563  1.00  0.00     0.042 A 
ATOM      6  C   UNL     1      20.901  13.644  27.829  1.00  0.00     0.129 A 
ATOM      7  F   UNL     1      20.919  14.218  29.059  1.00  0.00    -0.207 F 
ENDROOT
BRANCH   1   8
ATOM      8  C   UNL     1      19.166  15.380  27.135  1.00  0.00     0.105 C 
ATOM      9  C   UNL     1      18.150  15.194  28.241  1.00  0.00     0.195 C 
ATOM     10  N   UNL     1      18.504  15.854  25.920  1.00  0.00    -0.240 NA
ATOM     11  S   UNL     1      16.986  13.924  27.815  1.00  0.00     0.239 S 
ATOM     12  C   UNL     1      17.426  15.292  25.468  1.00  0.00     0.205 C 
ATOM     13  O   UNL     1      15.754  14.240  28.515  1.00  0.00    -0.206 OA
ATOM     14  N   UNL     1      16.728  14.269  26.148  1.00  0.00    -0.243 N 
ATOM     15  O   UNL     1      17.595  12.630  27.806  1.00  0.00    -0.206 OA
ATOM     16  N   UNL     1      16.847  15.668  24.286  1.00  0.00    -0.369 N 
ATOM     17  C   UNL     1      20.048  16.567  27.531  1.00  0.00     0.044 C 
ATOM     18  C   UNL     1      15.576  13.555  25.564  1.00  0.00     0.167 C 
ATOM     19  H   UNL     1      17.259  16.375  23.739  1.00  0.00     0.159 HD
ATOM     20  H   UNL     1      16.017  15.232  23.983  1.00  0.00     0.159 HD
ENDBRANCH   1   8
BRANCH   3  21
ATOM     21  N   UNL     1      20.735  11.891  24.077  1.00  0.00    -0.321 N 
ATOM     22  C   UNL     1      21.633  11.988  23.029  1.00  0.00     0.274 C 
ATOM     23  O   UNL     1      22.630  12.697  23.019  1.00  0.00    -0.267 OA
ATOM     24  H   UNL     1      19.919  11.370  23.897  1.00  0.00     0.170 HD
BRANCH  22  25
ATOM     25  C   UNL     1      21.340  11.120  21.862  1.00  0.00     0.128 A 
ATOM     26  N   UNL     1      20.647  10.005  22.112  1.00  0.00    -0.248 NA
ATOM     27  C   UNL     1      21.772  11.490  20.600  1.00  0.00     0.037 A 
ATOM     28  C   UNL     1      20.373   9.201  21.072  1.00  0.00     0.151 A 
ATOM     29  C   UNL     1      21.470  10.644  19.548  1.00  0.00     0.043 A 
ATOM     30  C   UNL     1      20.765   9.479  19.782  1.00  0.00     0.141 A 
ATOM     31  F   UNL     1      20.441   8.632  18.790  1.00  0.00    -0.205 F 
ENDBRANCH  22  25
ENDBRANCH   3  21
TORSDOF 3
ENDMDL
MODEL 12
REMARK VINA RESULT:    -7.663      3.497      6.977
REMARK INTER + INTRA:          -9.320
REMARK INTER:                  -9.875
REMARK INTRA:                   0.555
REMARK UNBOUND:                -0.313
REMARK SMILES CN1C(N)=N[C@](C)(c2cc(NC(=O)c3ccc(F)cn3)ccc2F)CS1(=O)=O
REMARK SMILES IDX 8 1 9 2 10 3 21 4 22 5 23 6 24 7 6 8 25 9 5 10 26 11 3 12
REMARK SMILES IDX 27 13 2 14 28 15 4 16 7 17 1 18 11 21 12 22 13 23 14 25
REMARK SMILES IDX 20 26 15 27 19 28 16 29 17 30 18 31
REMARK H PARENT 4 19 4 20 11 24
ROOT
ATOM      1  C   UNL     1      24.337  11.644  20.342  1.00  0.00     0.018 A 
ATOM      2  C   UNL     1      23.901  11.497  21.658  1.00  0.00     0.035 A 
ATOM      3  C   UNL     1      22.593  11.710  22.028  1.00  0.00     0.042 A 
ATOM      4  C   UNL     1      21.652  12.108  21.087  1.00  0.00     0.029 A 
ATOM      5  C   UNL     1      22.066  12.256  19.776  1.00  0.00     0.042 A 
ATOM      6  C   UNL     1      23.375  12.008  19.413  1.00  0.00     0.129 A 
ATOM      7  F   UNL     1      23.749  12.132  18.114  1.00  0.00    -0.207 F 
ENDROOT
BRANCH   1   8
ATOM      8  C   UNL     1      25.790  11.399  19.964  1.00  0.00     0.105 C 
ATOM      9  C   UNL     1      26.795  11.696  21.054  1.00  0.00     0.195 C 
ATOM     10  N   UNL     1      26.162  12.096  18.734  1.00  0.00    -0.240 NA
ATOM     11  S   UNL     1      26.777  13.421  21.471  1.00  0.00     0.239 S 
ATOM     12  C   UNL     1      26.487  13.352  18.735  1.00  0.00     0.205 C 
ATOM     13  O   UNL     1      28.105  13.742  21.962  1.00  0.00    -0.206 OA
ATOM     14  N   UNL     1      26.627  14.127  19.908  1.00  0.00    -0.243 N 
ATOM     15  O   UNL     1      25.565  13.792  22.132  1.00  0.00    -0.206 OA
ATOM     16  N   UNL     1      26.751  14.040  17.581  1.00  0.00    -0.369 N 
ATOM     17  C   UNL     1      25.960   9.924  19.587  1.00  0.00     0.044 C 
ATOM     18  C   UNL     1      26.874  15.583  19.886  1.00  0.00     0.167 C 
ATOM     19  H   UNL     1      26.681  13.585  16.710  1.00  0.00     0.159 HD
ATOM     20  H   UNL     1      27.013  14.988  17.621  1.00  0.00     0.159 HD
ENDBRANCH   1   8
BRANCH   3  21
ATOM     21  N   UNL     1      22.287  11.530  23.383  1.00  0.00    -0.321 N 
ATOM     22  C   UNL     1      22.814  12.193  24.477  1.00  0.00     0.274 C 
ATOM     23  O   UNL     1      23.753  12.978  24.439  1.00  0.00    -0.267 OA
ATOM     24  H   UNL     1      21.609  10.843  23.583  1.00  0.00     0.170 HD
BRANCH  22  25
ATOM     25  C   UNL     1      22.134  11.927  25.768  1.00  0.00     0.128 A 
ATOM     26  N   UNL     1      21.151  11.021  25.744  1.00  0.00    -0.248 NA
ATOM     27  C   UNL     1      22.536  12.596  26.911  1.00  0.00     0.037 A 
ATOM     28  C   UNL     1      20.518  10.766  26.901  1.00  0.00     0.151 A 
ATOM     29  C   UNL     1      21.868  12.308  28.088  1.00  0.00     0.043 A 
ATOM     30  C   UNL     1      20.840  11.384  28.088  1.00  0.00     0.141 A 
ATOM     31  F   UNL     1      20.170  11.065  29.208  1.00  0.00    -0.205 F 
ENDBRANCH  22  25
ENDBRANCH   3  21
TORSDOF 3
ENDMDL
MODEL 13
REMARK VINA RESULT:    -7.444      4.106      5.776
REMARK INTER + INTRA:          -9.063
REMARK INTER:                  -8.898
REMARK INTRA:                  -0.165
REMARK UNBOUND:                -0.313
REMARK SMILES CN1C(N)=N[C@](C)(c2cc(NC(=O)c3ccc(F)cn3)ccc2F)CS1(=O)=O
REMARK SMILES IDX 8 1 9 2 10 3 21 4 22 5 23 6 24 7 6 8 25 9 5 10 26 11 3 12
REMARK SMILES IDX 27 13 2 14 28 15 4 16 7 17 1 18 11 21 12 22 13 23 14 25
REMARK SMILES IDX 20 26 15 27 19 28 16 29 17 30 18 31
REMARK H PARENT 4 19 4 20 11 24
ROOT
ATOM      1  C   UNL     1      23.206  12.278  21.821  1.00  0.00     0.018 A 
ATOM      2  C   UNL     1      24.146  12.866  22.666  1.00  0.00     0.035 A 
ATOM      3  C   UNL     1      24.133  12.673  24.028  1.00  0.00     0.042 A 
ATOM      4  C   UNL     1      23.151  11.888  24.619  1.00  0.00     0.029 A 
ATOM      5  C   UNL     1      22.212  11.293  23.795  1.00  0.00     0.042 A 
ATOM      6  C   UNL     1      22.256  11.470  22.426  1.00  0.00     0.129 A 
ATOM      7  F   UNL     1      21.340  10.851  21.637  1.00  0.00    -0.207 F 
ENDROOT
BRANCH   1   8
ATOM      8  C   UNL     1      23.248  12.508  20.318  1.00  0.00     0.105 C 
ATOM      9  C   UNL     1      23.380  11.255  19.481  1.00  0.00     0.195 C 
ATOM     10  N   UNL     1      24.276  13.475  19.940  1.00  0.00    -0.240 NA
ATOM     11  S   UNL     1      24.927  10.446  19.805  1.00  0.00     0.239 S 
ATOM     12  C   UNL     1      25.521  13.133  19.814  1.00  0.00     0.205 C 
ATOM     13  O   UNL     1      25.276   9.721  18.596  1.00  0.00    -0.206 OA
ATOM     14  N   UNL     1      25.983  11.801  19.909  1.00  0.00    -0.243 N 
ATOM     15  O   UNL     1      24.962   9.882  21.118  1.00  0.00    -0.206 OA
ATOM     16  N   UNL     1      26.507  14.045  19.547  1.00  0.00    -0.369 N 
ATOM     17  C   UNL     1      21.951  13.200  19.888  1.00  0.00     0.044 C 
ATOM     18  C   UNL     1      27.415  11.442  19.888  1.00  0.00     0.167 C 
ATOM     19  H   UNL     1      26.283  15.000  19.461  1.00  0.00     0.159 HD
ATOM     20  H   UNL     1      27.439  13.746  19.440  1.00  0.00     0.159 HD
ENDBRANCH   1   8
BRANCH   3  21
ATOM     21  N   UNL     1      25.133  13.324  24.763  1.00  0.00    -0.321 N 
ATOM     22  C   UNL     1      26.471  13.471  24.446  1.00  0.00     0.274 C 
ATOM     23  O   UNL     1      27.036  12.929  23.505  1.00  0.00    -0.267 OA
ATOM     24  H   UNL     1      24.846  13.728  25.614  1.00  0.00     0.170 HD
BRANCH  22  25
ATOM     25  C   UNL     1      27.232  14.395  25.323  1.00  0.00     0.128 A 
ATOM     26  N   UNL     1      28.518  14.092  25.529  1.00  0.00    -0.248 NA
ATOM     27  C   UNL     1      26.606  15.502  25.869  1.00  0.00     0.037 A 
ATOM     28  C   UNL     1      29.226  14.912  26.324  1.00  0.00     0.151 A 
ATOM     29  C   UNL     1      27.364  16.331  26.678  1.00  0.00     0.043 A 
ATOM     30  C   UNL     1      28.691  16.033  26.916  1.00  0.00     0.141 A 
ATOM     31  F   UNL     1      29.468  16.813  27.687  1.00  0.00    -0.205 F 
ENDBRANCH  22  25
ENDBRANCH   3  21
TORSDOF 3
ENDMDL
MODEL 14
REMARK VINA RESULT:    -7.426      4.489      7.783
REMARK INTER + INTRA:          -9.041
REMARK INTER:                  -8.658
REMARK INTRA:                  -0.383
REMARK UNBOUND:                -0.313
REMARK SMILES CN1C(N)=N[C@](C)(c2cc(NC(=O)c3ccc(F)cn3)ccc2F)CS1(=O)=O
REMARK SMILES IDX 8 1 9 2 10 3 21 4 22 5 23 6 24 7 6 8 25 9 5 10 26 11 3 12
REMARK SMILES IDX 27 13 2 14 28 15 4 16 7 17 1 18 11 21 12 22 13 23 14 25
REMARK SMILES IDX 20 26 15 27 19 28 16 29 17 30 18 31
REMARK H PARENT 4 19 4 20 11 24
ROOT
ATOM      1  C   UNL     1      27.073  14.105  21.402  1.00  0.00     0.018 A 
ATOM      2  C   UNL     1      25.950  13.809  22.173  1.00  0.00     0.035 A 
ATOM      3  C   UNL     1      25.259  12.626  22.044  1.00  0.00     0.042 A 
ATOM      4  C   UNL     1      25.654  11.680  21.107  1.00  0.00     0.029 A 
ATOM      5  C   UNL     1      26.769  11.955  20.335  1.00  0.00     0.042 A 
ATOM      6  C   UNL     1      27.471  13.132  20.498  1.00  0.00     0.129 A 
ATOM      7  F   UNL     1      28.579  13.365  19.748  1.00  0.00    -0.207 F 
ENDROOT
BRANCH   1   8
ATOM      8  C   UNL     1      27.818  15.420  21.571  1.00  0.00     0.105 C 
ATOM      9  C   UNL     1      29.293  15.287  21.875  1.00  0.00     0.195 C 
ATOM     10  N   UNL     1      27.179  16.289  22.558  1.00  0.00    -0.240 NA
ATOM     11  S   UNL     1      29.542  14.484  23.438  1.00  0.00     0.239 S 
ATOM     12  C   UNL     1      27.378  16.137  23.831  1.00  0.00     0.205 C 
ATOM     13  O   UNL     1      30.812  14.964  23.953  1.00  0.00    -0.206 OA
ATOM     14  N   UNL     1      28.300  15.217  24.377  1.00  0.00    -0.243 N 
ATOM     15  O   UNL     1      29.165  13.106  23.389  1.00  0.00    -0.206 OA
ATOM     16  N   UNL     1      26.718  16.886  24.768  1.00  0.00    -0.369 N 
ATOM     17  C   UNL     1      27.697  16.226  20.275  1.00  0.00     0.044 C 
ATOM     18  C   UNL     1      28.425  14.968  25.827  1.00  0.00     0.167 C 
ATOM     19  H   UNL     1      26.054  17.555  24.485  1.00  0.00     0.159 HD
ATOM     20  H   UNL     1      26.908  16.755  25.726  1.00  0.00     0.159 HD
ENDBRANCH   1   8
BRANCH   3  21
ATOM     21  N   UNL     1      24.146  12.454  22.878  1.00  0.00    -0.321 N 
ATOM     22  C   UNL     1      22.806  12.530  22.544  1.00  0.00     0.274 C 
ATOM     23  O   UNL     1      22.369  12.896  21.461  1.00  0.00    -0.267 OA
ATOM     24  H   UNL     1      24.344  12.254  23.821  1.00  0.00     0.170 HD
BRANCH  22  25
ATOM     25  C   UNL     1      21.864  12.091  23.603  1.00  0.00     0.128 A 
ATOM     26  N   UNL     1      22.188  12.419  24.858  1.00  0.00    -0.248 NA
ATOM     27  C   UNL     1      20.719  11.392  23.262  1.00  0.00     0.037 A 
ATOM     28  C   UNL     1      21.353  12.029  25.834  1.00  0.00     0.151 A 
ATOM     29  C   UNL     1      19.875  11.009  24.290  1.00  0.00     0.043 A 
ATOM     30  C   UNL     1      20.194  11.325  25.596  1.00  0.00     0.141 A 
ATOM     31  F   UNL     1      19.400  10.982  26.625  1.00  0.00    -0.205 F 
ENDBRANCH  22  25
ENDBRANCH   3  21
TORSDOF 3
ENDMDL
MODEL 15
REMARK VINA RESULT:    -7.383      3.756      7.585
REMARK INTER + INTRA:          -8.991
REMARK INTER:                  -8.938
REMARK INTRA:                  -0.054
REMARK UNBOUND:                -0.313
REMARK SMILES CN1C(N)=N[C@](C)(c2cc(NC(=O)c3ccc(F)cn3)ccc2F)CS1(=O)=O
REMARK SMILES IDX 8 1 9 2 10 3 21 4 22 5 23 6 24 7 6 8 25 9 5 10 26 11 3 12
REMARK SMILES IDX 27 13 2 14 28 15 4 16 7 17 1 18 11 21 12 22 13 23 14 25
REMARK SMILES IDX 20 26 15 27 19 28 16 29 17 30 18 31
REMARK H PARENT 4 19 4 20 11 24
ROOT
ATOM      1  C   UNL     1      28.286  13.246  22.613  1.00  0.00     0.018 A 
ATOM      2  C   UNL     1      27.058  12.910  23.181  1.00  0.00     0.035 A 
ATOM      3  C   UNL     1      26.644  13.417  24.392  1.00  0.00     0.042 A 
ATOM      4  C   UNL     1      27.462  14.279  25.111  1.00  0.00     0.029 A 
ATOM      5  C   UNL     1      28.683  14.626  24.561  1.00  0.00     0.042 A 
ATOM      6  C   UNL     1      29.072  14.135  23.330  1.00  0.00     0.129 A 
ATOM      7  F   UNL     1      30.263  14.514  22.799  1.00  0.00    -0.207 F 
ENDROOT
BRANCH   1   8
ATOM      8  C   UNL     1      28.715  12.671  21.272  1.00  0.00     0.105 C 
ATOM      9  C   UNL     1      29.018  13.696  20.203  1.00  0.00     0.195 C 
ATOM     10  N   UNL     1      27.759  11.686  20.767  1.00  0.00    -0.240 NA
ATOM     11  S   UNL     1      27.561  14.625  19.793  1.00  0.00     0.239 S 
ATOM     12  C   UNL     1      26.677  12.043  20.147  1.00  0.00     0.205 C 
ATOM     13  O   UNL     1      27.721  15.059  18.417  1.00  0.00    -0.206 OA
ATOM     14  N   UNL     1      26.374  13.378  19.799  1.00  0.00    -0.243 N 
ATOM     15  O   UNL     1      27.163  15.482  20.865  1.00  0.00    -0.206 OA
ATOM     16  N   UNL     1      25.731  11.137  19.747  1.00  0.00    -0.369 N 
ATOM     17  C   UNL     1      29.987  11.842  21.473  1.00  0.00     0.044 C 
ATOM     18  C   UNL     1      25.084  13.783  19.207  1.00  0.00     0.167 C 
ATOM     19  H   UNL     1      25.853  10.180  19.944  1.00  0.00     0.159 HD
ATOM     20  H   UNL     1      24.930  11.442  19.263  1.00  0.00     0.159 HD
ENDBRANCH   1   8
BRANCH   3  21
ATOM     21  N   UNL     1      25.388  12.998  24.852  1.00  0.00    -0.321 N 
ATOM     22  C   UNL     1      24.265  12.681  24.108  1.00  0.00     0.274 C 
ATOM     23  O   UNL     1      24.151  12.844  22.901  1.00  0.00    -0.267 OA
ATOM     24  H   UNL     1      25.294  12.918  25.828  1.00  0.00     0.170 HD
BRANCH  22  25
ATOM     25  C   UNL     1      23.153  12.065  24.872  1.00  0.00     0.128 A 
ATOM     26  N   UNL     1      22.815  12.668  26.017  1.00  0.00    -0.248 NA
ATOM     27  C   UNL     1      22.521  10.935  24.384  1.00  0.00     0.037 A 
ATOM     28  C   UNL     1      21.813  12.127  26.729  1.00  0.00     0.151 A 
ATOM     29  C   UNL     1      21.489  10.404  25.136  1.00  0.00     0.043 A 
ATOM     30  C   UNL     1      21.129  11.001  26.329  1.00  0.00     0.141 A 
ATOM     31  F   UNL     1      20.127  10.527  27.089  1.00  0.00    -0.205 F 
ENDBRANCH  22  25
ENDBRANCH   3  21
TORSDOF 3
ENDMDL
MODEL 16
REMARK VINA RESULT:    -7.365      5.702      8.595
REMARK INTER + INTRA:          -8.970
REMARK INTER:                  -9.282
REMARK INTRA:                   0.312
REMARK UNBOUND:                -0.313
REMARK SMILES CN1C(N)=N[C@](C)(c2cc(NC(=O)c3ccc(F)cn3)ccc2F)CS1(=O)=O
REMARK SMILES IDX 8 1 9 2 10 3 21 4 22 5 23 6 24 7 6 8 25 9 5 10 26 11 3 12
REMARK SMILES IDX 27 13 2 14 28 15 4 16 7 17 1 18 11 21 12 22 13 23 14 25
REMARK SMILES IDX 20 26 15 27 19 28 16 29 17 30 18 31
REMARK H PARENT 4 19 4 20 11 24
ROOT
ATOM      1  C   UNL     1      17.556  13.518  26.127  1.00  0.00     0.018 A 
ATOM      2  C   UNL     1      18.416  13.220  25.071  1.00  0.00     0.035 A 
ATOM      3  C   UNL     1      19.684  12.722  25.273  1.00  0.00     0.042 A 
ATOM      4  C   UNL     1      20.163  12.517  26.561  1.00  0.00     0.029 A 
ATOM      5  C   UNL     1      19.321  12.805  27.621  1.00  0.00     0.042 A 
ATOM      6  C   UNL     1      18.040  13.273  27.403  1.00  0.00     0.129 A 
ATOM      7  F   UNL     1      17.224  13.520  28.460  1.00  0.00    -0.207 F 
ENDROOT
BRANCH   1   8
ATOM      8  C   UNL     1      16.160  14.065  25.872  1.00  0.00     0.105 C 
ATOM      9  C   UNL     1      16.049  15.020  24.705  1.00  0.00     0.195 C 
ATOM     10  N   UNL     1      15.579  14.668  27.071  1.00  0.00    -0.240 NA
ATOM     11  S   UNL     1      17.004  16.487  25.002  1.00  0.00     0.239 S 
ATOM     12  C   UNL     1      15.870  15.878  27.434  1.00  0.00     0.205 C 
ATOM     13  O   UNL     1      16.367  17.554  24.252  1.00  0.00    -0.206 OA
ATOM     14  N   UNL     1      16.664  16.760  26.667  1.00  0.00    -0.243 N 
ATOM     15  O   UNL     1      18.407  16.215  24.979  1.00  0.00    -0.206 OA
ATOM     16  N   UNL     1      15.404  16.424  28.600  1.00  0.00    -0.369 N 
ATOM     17  C   UNL     1      15.216  12.894  25.585  1.00  0.00     0.044 C 
ATOM     18  C   UNL     1      17.089  18.088  27.151  1.00  0.00     0.167 C 
ATOM     19  H   UNL     1      14.840  15.887  29.204  1.00  0.00     0.159 HD
ATOM     20  H   UNL     1      15.630  17.352  28.835  1.00  0.00     0.159 HD
ENDBRANCH   1   8
BRANCH   3  21
ATOM     21  N   UNL     1      20.447  12.468  24.126  1.00  0.00    -0.321 N 
ATOM     22  C   UNL     1      20.459  11.330  23.339  1.00  0.00     0.274 C 
ATOM     23  O   UNL     1      19.878  10.285  23.603  1.00  0.00    -0.267 OA
ATOM     24  H   UNL     1      21.053  13.191  23.844  1.00  0.00     0.170 HD
BRANCH  22  25
ATOM     25  C   UNL     1      21.219  11.445  22.071  1.00  0.00     0.128 A 
ATOM     26  N   UNL     1      21.188  10.380  21.263  1.00  0.00    -0.248 NA
ATOM     27  C   UNL     1      21.900  12.613  21.777  1.00  0.00     0.037 A 
ATOM     28  C   UNL     1      21.872  10.459  20.110  1.00  0.00     0.151 A 
ATOM     29  C   UNL     1      22.591  12.666  20.579  1.00  0.00     0.043 A 
ATOM     30  C   UNL     1      22.584  11.575  19.732  1.00  0.00     0.141 A 
ATOM     31  F   UNL     1      23.233  11.584  18.555  1.00  0.00    -0.205 F 
ENDBRANCH  22  25
ENDBRANCH   3  21
TORSDOF 3
ENDMDL
MODEL 17
REMARK VINA RESULT:    -7.312      3.611      7.733
REMARK INTER + INTRA:          -8.908
REMARK INTER:                  -8.865
REMARK INTRA:                  -0.043
REMARK UNBOUND:                -0.313
REMARK SMILES CN1C(N)=N[C@](C)(c2cc(NC(=O)c3ccc(F)cn3)ccc2F)CS1(=O)=O
REMARK SMILES IDX 8 1 9 2 10 3 21 4 22 5 23 6 24 7 6 8 25 9 5 10 26 11 3 12
REMARK SMILES IDX 27 13 2 14 28 15 4 16 7 17 1 18 11 21 12 22 13 23 14 25
REMARK SMILES IDX 20 26 15 27 19 28 16 29 17 30 18 31
REMARK H PARENT 4 19 4 20 11 24
ROOT
ATOM      1  C   UNL     1      26.237  12.411  21.688  1.00  0.00     0.018 A 
ATOM      2  C   UNL     1      24.949  12.216  22.185  1.00  0.00     0.035 A 
ATOM      3  C   UNL     1      24.541  12.732  23.394  1.00  0.00     0.042 A 
ATOM      4  C   UNL     1      25.424  13.458  24.183  1.00  0.00     0.029 A 
ATOM      5  C   UNL     1      26.706  13.664  23.704  1.00  0.00     0.042 A 
ATOM      6  C   UNL     1      27.091  13.168  22.474  1.00  0.00     0.129 A 
ATOM      7  F   UNL     1      28.346  13.410  22.013  1.00  0.00    -0.207 F 
ENDROOT
BRANCH   1   8
ATOM      8  C   UNL     1      26.657  11.830  20.346  1.00  0.00     0.105 C 
ATOM      9  C   UNL     1      27.251  12.826  19.375  1.00  0.00     0.195 C 
ATOM     10  N   UNL     1      25.571  11.090  19.705  1.00  0.00    -0.240 NA
ATOM     11  S   UNL     1      26.050  14.052  18.922  1.00  0.00     0.239 S 
ATOM     12  C   UNL     1      24.640  11.692  19.032  1.00  0.00     0.205 C 
ATOM     13  O   UNL     1      26.412  14.516  17.594  1.00  0.00    -0.206 OA
ATOM     14  N   UNL     1      24.641  13.077  18.755  1.00  0.00    -0.243 N 
ATOM     15  O   UNL     1      25.739  14.917  20.017  1.00  0.00    -0.206 OA
ATOM     16  N   UNL     1      23.571  11.020  18.502  1.00  0.00    -0.369 N 
ATOM     17  C   UNL     1      27.715  10.750  20.584  1.00  0.00     0.044 C 
ATOM     18  C   UNL     1      23.514  13.767  18.096  1.00  0.00     0.167 C 
ATOM     19  H   UNL     1      23.482  10.050  18.641  1.00  0.00     0.159 HD
ATOM     20  H   UNL     1      22.892  11.508  17.981  1.00  0.00     0.159 HD
ENDBRANCH   1   8
BRANCH   3  21
ATOM     21  N   UNL     1      23.222  12.460  23.779  1.00  0.00    -0.321 N 
ATOM     22  C   UNL     1      22.716  12.311  25.058  1.00  0.00     0.274 C 
ATOM     23  O   UNL     1      23.387  12.266  26.081  1.00  0.00    -0.267 OA
ATOM     24  H   UNL     1      22.572  12.364  23.046  1.00  0.00     0.170 HD
BRANCH  22  25
ATOM     25  C   UNL     1      21.237  12.240  25.150  1.00  0.00     0.128 A 
ATOM     26  N   UNL     1      20.623  13.307  25.671  1.00  0.00    -0.248 NA
ATOM     27  C   UNL     1      20.570  11.114  24.698  1.00  0.00     0.037 A 
ATOM     28  C   UNL     1      19.284  13.264  25.767  1.00  0.00     0.151 A 
ATOM     29  C   UNL     1      19.191  11.102  24.806  1.00  0.00     0.043 A 
ATOM     30  C   UNL     1      18.534  12.187  25.352  1.00  0.00     0.141 A 
ATOM     31  F   UNL     1      17.195  12.224  25.468  1.00  0.00    -0.205 F 
ENDBRANCH  22  25
ENDBRANCH   3  21
TORSDOF 3
ENDMDL
MODEL 18
REMARK VINA RESULT:    -7.234      4.329      7.716
REMARK INTER + INTRA:          -8.816
REMARK INTER:                  -8.508
REMARK INTRA:                  -0.308
REMARK UNBOUND:                -0.313
REMARK SMILES CN1C(N)=N[C@](C)(c2cc(NC(=O)c3ccc(F)cn3)ccc2F)CS1(=O)=O
REMARK SMILES IDX 8 1 9 2 10 3 21 4 22 5 23 6 24 7 6 8 25 9 5 10 26 11 3 12
REMARK SMILES IDX 27 13 2 14 28 15 4 16 7 17 1 18 11 21 12 22 13 23 14 25
REMARK SMILES IDX 20 26 15 27 19 28 16 29 17 30 18 31
REMARK H PARENT 4 19 4 20 11 24
ROOT
ATOM      1  C   UNL     1      27.339  14.197  21.214  1.00  0.00     0.018 A 
ATOM      2  C   UNL     1      26.107  13.754  21.694  1.00  0.00     0.035 A 
ATOM      3  C   UNL     1      25.581  12.529  21.351  1.00  0.00     0.042 A 
ATOM      4  C   UNL     1      26.264  11.688  20.482  1.00  0.00     0.029 A 
ATOM      5  C   UNL     1      27.490  12.110  19.999  1.00  0.00     0.042 A 
ATOM      6  C   UNL     1      28.021  13.328  20.377  1.00  0.00     0.129 A 
ATOM      7  F   UNL     1      29.239  13.705  19.912  1.00  0.00    -0.207 F 
ENDROOT
BRANCH   1   8
ATOM      8  C   UNL     1      27.895  15.554  21.614  1.00  0.00     0.105 C 
ATOM      9  C   UNL     1      29.347  15.552  22.040  1.00  0.00     0.195 C 
ATOM     10  N   UNL     1      27.074  16.205  22.634  1.00  0.00    -0.240 NA
ATOM     11  S   UNL     1      29.568  14.581  23.509  1.00  0.00     0.239 S 
ATOM     12  C   UNL     1      27.187  15.908  23.892  1.00  0.00     0.205 C 
ATOM     13  O   UNL     1      30.721  15.131  24.199  1.00  0.00    -0.206 OA
ATOM     14  N   UNL     1      28.171  15.035  24.408  1.00  0.00    -0.243 N 
ATOM     15  O   UNL     1      29.373  13.188  23.255  1.00  0.00    -0.206 OA
ATOM     16  N   UNL     1      26.365  16.444  24.846  1.00  0.00    -0.369 N 
ATOM     17  C   UNL     1      27.779  16.507  20.421  1.00  0.00     0.044 C 
ATOM     18  C   UNL     1      28.209  14.611  25.821  1.00  0.00     0.167 C 
ATOM     19  H   UNL     1      25.647  17.065  24.585  1.00  0.00     0.159 HD
ATOM     20  H   UNL     1      26.492  16.210  25.794  1.00  0.00     0.159 HD
ENDBRANCH   1   8
BRANCH   3  21
ATOM     21  N   UNL     1      24.333  12.206  21.900  1.00  0.00    -0.321 N 
ATOM     22  C   UNL     1      23.093  12.237  21.286  1.00  0.00     0.274 C 
ATOM     23  O   UNL     1      22.871  12.686  20.170  1.00  0.00    -0.267 OA
ATOM     24  H   UNL     1      24.339  11.921  22.842  1.00  0.00     0.170 HD
BRANCH  22  25
ATOM     25  C   UNL     1      21.985  11.635  22.068  1.00  0.00     0.128 A 
ATOM     26  N   UNL     1      21.600  10.408  21.702  1.00  0.00    -0.248 NA
ATOM     27  C   UNL     1      21.418  12.338  23.116  1.00  0.00     0.037 A 
ATOM     28  C   UNL     1      20.595   9.844  22.392  1.00  0.00     0.151 A 
ATOM     29  C   UNL     1      20.389  11.728  23.812  1.00  0.00     0.043 A 
ATOM     30  C   UNL     1      19.965  10.466  23.446  1.00  0.00     0.141 A 
ATOM     31  F   UNL     1      18.976   9.830  24.098  1.00  0.00    -0.205 F 
ENDBRANCH  22  25
ENDBRANCH   3  21
TORSDOF 3
ENDMDL
MODEL 19
REMARK VINA RESULT:    -7.226      3.994      7.810
REMARK INTER + INTRA:          -8.807
REMARK INTER:                  -8.563
REMARK INTRA:                  -0.244
REMARK UNBOUND:                -0.313
REMARK SMILES CN1C(N)=N[C@](C)(c2cc(NC(=O)c3ccc(F)cn3)ccc2F)CS1(=O)=O
REMARK SMILES IDX 8 1 9 2 10 3 21 4 22 5 23 6 24 7 6 8 25 9 5 10 26 11 3 12
REMARK SMILES IDX 27 13 2 14 28 15 4 16 7 17 1 18 11 21 12 22 13 23 14 25
REMARK SMILES IDX 20 26 15 27 19 28 16 29 17 30 18 31
REMARK H PARENT 4 19 4 20 11 24
ROOT
ATOM      1  C   UNL     1      28.810  13.184  20.962  1.00  0.00     0.018 A 
ATOM      2  C   UNL     1      27.456  13.000  21.236  1.00  0.00     0.035 A 
ATOM      3  C   UNL     1      26.876  11.752  21.273  1.00  0.00     0.042 A 
ATOM      4  C   UNL     1      27.632  10.616  21.011  1.00  0.00     0.029 A 
ATOM      5  C   UNL     1      28.979  10.781  20.741  1.00  0.00     0.042 A 
ATOM      6  C   UNL     1      29.554  12.036  20.739  1.00  0.00     0.129 A 
ATOM      7  F   UNL     1      30.884  12.167  20.499  1.00  0.00    -0.207 F 
ENDROOT
BRANCH   1   8
ATOM      8  C   UNL     1      29.423  14.576  20.932  1.00  0.00     0.105 C 
ATOM      9  C   UNL     1      30.478  14.835  21.983  1.00  0.00     0.195 C 
ATOM     10  N   UNL     1      28.404  15.624  20.974  1.00  0.00    -0.240 NA
ATOM     11  S   UNL     1      29.778  14.742  23.611  1.00  0.00     0.239 S 
ATOM     12  C   UNL     1      27.863  16.004  22.090  1.00  0.00     0.205 C 
ATOM     13  O   UNL     1      30.585  15.602  24.459  1.00  0.00    -0.206 OA
ATOM     14  N   UNL     1      28.274  15.541  23.360  1.00  0.00    -0.243 N 
ATOM     15  O   UNL     1      29.402  13.405  23.949  1.00  0.00    -0.206 OA
ATOM     16  N   UNL     1      26.847  16.921  22.135  1.00  0.00    -0.369 N 
ATOM     17  C   UNL     1      30.084  14.795  19.568  1.00  0.00     0.044 C 
ATOM     18  C   UNL     1      27.567  15.887  24.610  1.00  0.00     0.167 C 
ATOM     19  H   UNL     1      26.491  17.302  21.300  1.00  0.00     0.159 HD
ATOM     20  H   UNL     1      26.472  17.199  23.002  1.00  0.00     0.159 HD
ENDBRANCH   1   8
BRANCH   3  21
ATOM     21  N   UNL     1      25.505  11.705  21.558  1.00  0.00    -0.321 N 
ATOM     22  C   UNL     1      24.453  11.515  20.680  1.00  0.00     0.274 C 
ATOM     23  O   UNL     1      24.551  11.484  19.460  1.00  0.00    -0.267 OA
ATOM     24  H   UNL     1      25.259  11.822  22.504  1.00  0.00     0.170 HD
BRANCH  22  25
ATOM     25  C   UNL     1      23.129  11.304  21.314  1.00  0.00     0.128 A 
ATOM     26  N   UNL     1      22.698  10.040  21.377  1.00  0.00    -0.248 NA
ATOM     27  C   UNL     1      22.419  12.384  21.808  1.00  0.00     0.037 A 
ATOM     28  C   UNL     1      21.499   9.823  21.943  1.00  0.00     0.151 A 
ATOM     29  C   UNL     1      21.190  12.128  22.391  1.00  0.00     0.043 A 
ATOM     30  C   UNL     1      20.717  10.832  22.458  1.00  0.00     0.141 A 
ATOM     31  F   UNL     1      19.534  10.535  23.023  1.00  0.00    -0.205 F 
ENDBRANCH  22  25
ENDBRANCH   3  21
TORSDOF 3
ENDMDL
MODEL 20
REMARK VINA RESULT:    -7.219      4.635      5.947
REMARK INTER + INTRA:          -8.798
REMARK INTER:                  -8.940
REMARK INTRA:                   0.141
REMARK UNBOUND:                -0.313
REMARK SMILES CN1C(N)=N[C@](C)(c2cc(NC(=O)c3ccc(F)cn3)ccc2F)CS1(=O)=O
REMARK SMILES IDX 8 1 9 2 10 3 21 4 22 5 23 6 24 7 6 8 25 9 5 10 26 11 3 12
REMARK SMILES IDX 27 13 2 14 28 15 4 16 7 17 1 18 11 21 12 22 13 23 14 25
REMARK SMILES IDX 20 26 15 27 19 28 16 29 17 30 18 31
REMARK H PARENT 4 19 4 20 11 24
ROOT
ATOM      1  C   UNL     1      21.317  11.625  25.822  1.00  0.00     0.018 A 
ATOM      2  C   UNL     1      22.579  12.191  25.999  1.00  0.00     0.035 A 
ATOM      3  C   UNL     1      23.459  12.369  24.957  1.00  0.00     0.042 A 
ATOM      4  C   UNL     1      23.121  11.961  23.673  1.00  0.00     0.029 A 
ATOM      5  C   UNL     1      21.871  11.400  23.477  1.00  0.00     0.042 A 
ATOM      6  C   UNL     1      20.985  11.257  24.527  1.00  0.00     0.129 A 
ATOM      7  F   UNL     1      19.754  10.731  24.303  1.00  0.00    -0.207 F 
ENDROOT
BRANCH   1   8
ATOM      8  C   UNL     1      20.365  11.445  26.994  1.00  0.00     0.105 C 
ATOM      9  C   UNL     1      18.930  11.838  26.720  1.00  0.00     0.195 C 
ATOM     10  N   UNL     1      20.848  12.114  28.201  1.00  0.00    -0.240 NA
ATOM     11  S   UNL     1      18.812  13.575  26.372  1.00  0.00     0.239 S 
ATOM     12  C   UNL     1      20.672  13.385  28.392  1.00  0.00     0.205 C 
ATOM     13  O   UNL     1      17.478  13.987  26.772  1.00  0.00    -0.206 OA
ATOM     14  N   UNL     1      19.912  14.211  27.534  1.00  0.00    -0.243 N 
ATOM     15  O   UNL     1      19.412  13.903  25.117  1.00  0.00    -0.206 OA
ATOM     16  N   UNL     1      21.195  14.041  29.474  1.00  0.00    -0.369 N 
ATOM     17  C   UNL     1      20.356   9.969  27.401  1.00  0.00     0.044 C 
ATOM     18  C   UNL     1      19.824  15.676  27.696  1.00  0.00     0.167 C 
ATOM     19  H   UNL     1      21.740  13.550  30.130  1.00  0.00     0.159 HD
ATOM     20  H   UNL     1      21.025  15.003  29.596  1.00  0.00     0.159 HD
ENDBRANCH   1   8
BRANCH   3  21
ATOM     21  N   UNL     1      24.696  12.947  25.271  1.00  0.00    -0.321 N 
ATOM     22  C   UNL     1      25.644  13.467  24.407  1.00  0.00     0.274 C 
ATOM     23  O   UNL     1      25.604  13.384  23.187  1.00  0.00    -0.267 OA
ATOM     24  H   UNL     1      24.919  12.990  26.229  1.00  0.00     0.170 HD
BRANCH  22  25
ATOM     25  C   UNL     1      26.757  14.201  25.056  1.00  0.00     0.128 A 
ATOM     26  N   UNL     1      27.994  13.833  24.707  1.00  0.00    -0.248 NA
ATOM     27  C   UNL     1      26.483  15.213  25.960  1.00  0.00     0.037 A 
ATOM     28  C   UNL     1      29.018  14.481  25.284  1.00  0.00     0.151 A 
ATOM     29  C   UNL     1      27.559  15.867  26.534  1.00  0.00     0.043 A 
ATOM     30  C   UNL     1      28.847  15.496  26.198  1.00  0.00     0.141 A 
ATOM     31  F   UNL     1      29.923  16.108  26.722  1.00  0.00    -0.205 F 
ENDBRANCH  22  25
ENDBRANCH   3  21
TORSDOF 3
ENDMDL
