MODEL 1
REMARK VINA RESULT:     0.183      0.000      0.000
REMARK INTER + INTRA:           0.782
REMARK INTER:                   0.257
REMARK INTRA:                   0.524
REMARK UNBOUND:                 0.524
REMARK SMILES Cc1ccc(NC(=O)c2ccc(CN3CCN(C)CC3)cc2)cc1Nc1nc(-c2cccnc2)cs1
REMARK SMILES IDX 6 1 7 2 8 3 5 5 2 6 3 7 24 8 4 9 23 10 1 11 25 12 26 14
REMARK SMILES IDX 27 15 36 16 28 17 35 18 29 19 30 20 34 21 31 22 33 23 32 24
REMARK SMILES IDX 9 25 10 26 22 27 11 28 21 29 12 30 13 31 14 32 15 33 20 34
REMARK SMILES IDX 16 35 19 36 17 37 18 38
REMARK H PARENT 6 4 25 13
ROOT
ATOM      1  N   UNL     1      31.099  27.626  45.852  1.00  0.00    -0.322 N 
ATOM      2  C   UNL     1      31.047  28.896  46.399  1.00  0.00     0.255 C 
ATOM      3  O   UNL     1      30.505  29.225  47.447  1.00  0.00    -0.269 OA
ATOM      4  H   UNL     1      31.711  27.500  45.058  1.00  0.00     0.170 HD
ENDROOT
BRANCH   1   5
ATOM      5  C   UNL     1      30.492  26.455  46.351  1.00  0.00     0.043 A 
ATOM      6  C   UNL     1      29.387  24.120  47.494  1.00  0.00    -0.027 A 
ATOM      7  C   UNL     1      30.554  24.689  48.020  1.00  0.00     0.008 A 
ATOM      8  C   UNL     1      28.787  24.709  46.366  1.00  0.00     0.045 A 
ATOM      9  C   UNL     1      31.098  25.845  47.455  1.00  0.00     0.026 A 
ATOM     10  C   UNL     1      29.345  25.874  45.808  1.00  0.00     0.052 A 
ATOM     11  C   UNL     1      28.827  22.877  48.129  1.00  0.00     0.046 C 
BRANCH   8  12
ATOM     12  N   UNL     1      27.633  24.137  45.778  1.00  0.00    -0.331 N 
ATOM     13  H   UNL     1      27.132  23.563  46.452  1.00  0.00     0.169 HD
BRANCH  12  14
ATOM     14  C   UNL     1      26.758  24.843  45.010  1.00  0.00     0.187 A 
ATOM     15  N   UNL     1      26.649  24.616  43.718  1.00  0.00    -0.220 NA
ATOM     16  S   UNL     1      25.726  26.102  45.589  1.00  0.00    -0.105 S 
ATOM     17  C   UNL     1      25.720  25.461  43.128  1.00  0.00     0.085 A 
ATOM     18  C   UNL     1      25.112  26.333  44.008  1.00  0.00     0.097 A 
BRANCH  17  19
ATOM     19  C   UNL     1      25.454  25.389  41.695  1.00  0.00     0.019 A 
ATOM     20  C   UNL     1      24.885  24.274  41.070  1.00  0.00     0.013 A 
ATOM     21  C   UNL     1      25.759  26.476  40.875  1.00  0.00     0.121 A 
ATOM     22  C   UNL     1      24.651  24.288  39.693  1.00  0.00     0.021 A 
ATOM     23  N   UNL     1      25.544  26.518  39.534  1.00  0.00    -0.264 NA
ATOM     24  C   UNL     1      24.994  25.421  38.976  1.00  0.00     0.111 A 
ENDBRANCH  17  19
ENDBRANCH  12  14
ENDBRANCH   8  12
ENDBRANCH   1   5
BRANCH   2  25
ATOM     25  C   UNL     1      31.786  29.933  45.626  1.00  0.00     0.040 A 
ATOM     26  C   UNL     1      33.171  30.027  45.787  1.00  0.00     0.014 A 
ATOM     27  C   UNL     1      31.124  30.814  44.761  1.00  0.00     0.014 A 
ATOM     28  C   UNL     1      33.896  30.975  45.063  1.00  0.00     0.006 A 
ATOM     29  C   UNL     1      31.852  31.764  44.040  1.00  0.00     0.006 A 
ATOM     30  C   UNL     1      33.246  31.846  44.174  1.00  0.00    -0.034 A 
BRANCH  30  31
ATOM     31  C   UNL     1      34.036  32.887  43.401  1.00  0.00     0.120 C 
BRANCH  31  32
ATOM     32  N   UNL     1      33.771  34.261  43.866  1.00  0.00    -0.297 NA
ATOM     33  C   UNL     1      34.981  34.841  44.478  1.00  0.00     0.100 C 
ATOM     34  C   UNL     1      32.658  34.302  44.845  1.00  0.00     0.100 C 
ATOM     35  C   UNL     1      35.414  34.213  45.831  1.00  0.00     0.099 C 
ATOM     36  C   UNL     1      33.058  34.308  46.346  1.00  0.00     0.099 C 
ATOM     37  N   UNL     1      34.314  33.588  46.591  1.00  0.00    -0.304 NA
ATOM     38  C   UNL     1      34.629  33.510  48.014  1.00  0.00     0.105 C 
ENDBRANCH  31  32
ENDBRANCH  30  31
ENDBRANCH   2  25
TORSDOF 7
ENDMDL
MODEL 2
REMARK VINA RESULT:     1.005      2.792     10.116
REMARK INTER + INTRA:           1.940
REMARK INTER:                   2.755
REMARK INTRA:                  -0.815
REMARK UNBOUND:                 0.524
REMARK SMILES Cc1ccc(NC(=O)c2ccc(CN3CCN(C)CC3)cc2)cc1Nc1nc(-c2cccnc2)cs1
REMARK SMILES IDX 6 1 7 2 8 3 5 5 2 6 3 7 24 8 4 9 23 10 1 11 25 12 26 14
REMARK SMILES IDX 27 15 36 16 28 17 35 18 29 19 30 20 34 21 31 22 33 23 32 24
REMARK SMILES IDX 9 25 10 26 22 27 11 28 21 29 12 30 13 31 14 32 15 33 20 34
REMARK SMILES IDX 16 35 19 36 17 37 18 38
REMARK H PARENT 6 4 25 13
ROOT
ATOM      1  N   UNL     1      27.525  24.804  44.391  1.00  0.00    -0.322 N 
ATOM      2  C   UNL     1      26.305  25.457  44.406  1.00  0.00     0.255 C 
ATOM      3  O   UNL     1      25.796  26.045  45.351  1.00  0.00    -0.269 OA
ATOM      4  H   UNL     1      27.864  24.498  43.490  1.00  0.00     0.170 HD
ENDROOT
BRANCH   1   5
ATOM      5  C   UNL     1      28.413  24.627  45.473  1.00  0.00     0.043 A 
ATOM      6  C   UNL     1      30.168  24.093  47.620  1.00  0.00    -0.027 A 
ATOM      7  C   UNL     1      29.386  23.071  47.066  1.00  0.00     0.008 A 
ATOM      8  C   UNL     1      30.045  25.400  47.114  1.00  0.00     0.045 A 
ATOM      9  C   UNL     1      28.520  23.337  46.002  1.00  0.00     0.026 A 
ATOM     10  C   UNL     1      29.169  25.652  46.042  1.00  0.00     0.052 A 
ATOM     11  C   UNL     1      31.092  23.772  48.763  1.00  0.00     0.046 C 
BRANCH   8  12
ATOM     12  N   UNL     1      30.783  26.468  47.678  1.00  0.00    -0.331 N 
ATOM     13  H   UNL     1      31.707  26.154  47.967  1.00  0.00     0.169 HD
BRANCH  12  14
ATOM     14  C   UNL     1      30.855  27.705  47.116  1.00  0.00     0.187 A 
ATOM     15  N   UNL     1      31.550  27.916  46.018  1.00  0.00    -0.220 NA
ATOM     16  S   UNL     1      30.098  29.124  47.748  1.00  0.00    -0.105 S 
ATOM     17  C   UNL     1      31.507  29.249  45.635  1.00  0.00     0.085 A 
ATOM     18  C   UNL     1      30.748  30.050  46.463  1.00  0.00     0.097 A 
BRANCH  17  19
ATOM     19  C   UNL     1      32.224  29.706  44.448  1.00  0.00     0.019 A 
ATOM     20  C   UNL     1      32.018  30.957  43.857  1.00  0.00     0.013 A 
ATOM     21  C   UNL     1      33.179  28.882  43.852  1.00  0.00     0.121 A 
ATOM     22  C   UNL     1      32.753  31.325  42.727  1.00  0.00     0.021 A 
ATOM     23  N   UNL     1      33.907  29.212  42.754  1.00  0.00    -0.264 NA
ATOM     24  C   UNL     1      33.676  30.427  42.218  1.00  0.00     0.111 A 
ENDBRANCH  17  19
ENDBRANCH  12  14
ENDBRANCH   8  12
ENDBRANCH   1   5
BRANCH   2  25
ATOM     25  C   UNL     1      25.593  25.465  43.097  1.00  0.00     0.040 A 
ATOM     26  C   UNL     1      26.307  25.124  41.945  1.00  0.00     0.014 A 
ATOM     27  C   UNL     1      24.241  25.818  42.999  1.00  0.00     0.014 A 
ATOM     28  C   UNL     1      25.665  25.102  40.706  1.00  0.00     0.006 A 
ATOM     29  C   UNL     1      23.602  25.799  41.756  1.00  0.00     0.006 A 
ATOM     30  C   UNL     1      24.304  25.429  40.599  1.00  0.00    -0.034 A 
BRANCH  30  31
ATOM     31  C   UNL     1      23.614  25.422  39.247  1.00  0.00     0.120 C 
BRANCH  31  32
ATOM     32  N   UNL     1      24.522  25.784  38.143  1.00  0.00    -0.297 NA
ATOM     33  C   UNL     1      23.835  26.660  37.176  1.00  0.00     0.100 C 
ATOM     34  C   UNL     1      25.032  24.582  37.440  1.00  0.00     0.100 C 
ATOM     35  C   UNL     1      22.708  25.988  36.345  1.00  0.00     0.099 C 
ATOM     36  C   UNL     1      24.281  24.169  36.144  1.00  0.00     0.099 C 
ATOM     37  N   UNL     1      22.858  24.529  36.185  1.00  0.00    -0.304 NA
ATOM     38  C   UNL     1      22.141  24.046  35.010  1.00  0.00     0.105 C 
ENDBRANCH  31  32
ENDBRANCH  30  31
ENDBRANCH   2  25
TORSDOF 7
ENDMDL
MODEL 3
REMARK VINA RESULT:     2.130      1.239      2.041
REMARK INTER + INTRA:           3.526
REMARK INTER:                   0.260
REMARK INTRA:                   3.267
REMARK UNBOUND:                 0.524
REMARK SMILES Cc1ccc(NC(=O)c2ccc(CN3CCN(C)CC3)cc2)cc1Nc1nc(-c2cccnc2)cs1
REMARK SMILES IDX 6 1 7 2 8 3 5 5 2 6 3 7 24 8 4 9 23 10 1 11 25 12 26 14
REMARK SMILES IDX 27 15 36 16 28 17 35 18 29 19 30 20 34 21 31 22 33 23 32 24
REMARK SMILES IDX 9 25 10 26 22 27 11 28 21 29 12 30 13 31 14 32 15 33 20 34
REMARK SMILES IDX 16 35 19 36 17 37 18 38
REMARK H PARENT 6 4 25 13
ROOT
ATOM      1  N   UNL     1      31.150  27.665  46.355  1.00  0.00    -0.322 N 
ATOM      2  C   UNL     1      32.141  28.103  45.495  1.00  0.00     0.255 C 
ATOM      3  O   UNL     1      32.555  27.529  44.495  1.00  0.00    -0.269 OA
ATOM      4  H   UNL     1      30.825  28.327  47.047  1.00  0.00     0.170 HD
ENDROOT
BRANCH   1   5
ATOM      5  C   UNL     1      30.449  26.442  46.300  1.00  0.00     0.043 A 
ATOM      6  C   UNL     1      29.202  23.909  46.217  1.00  0.00    -0.027 A 
ATOM      7  C   UNL     1      30.599  24.019  46.203  1.00  0.00     0.008 A 
ATOM      8  C   UNL     1      28.424  25.081  46.240  1.00  0.00     0.045 A 
ATOM      9  C   UNL     1      31.214  25.273  46.246  1.00  0.00     0.026 A 
ATOM     10  C   UNL     1      29.057  26.337  46.285  1.00  0.00     0.052 A 
ATOM     11  C   UNL     1      28.573  22.544  46.172  1.00  0.00     0.046 C 
BRANCH   8  12
ATOM     12  N   UNL     1      27.011  25.013  46.208  1.00  0.00    -0.331 N 
ATOM     13  H   UNL     1      26.619  25.225  47.123  1.00  0.00     0.169 HD
BRANCH  12  14
ATOM     14  C   UNL     1      26.257  25.577  45.225  1.00  0.00     0.187 A 
ATOM     15  N   UNL     1      26.263  25.095  44.000  1.00  0.00    -0.220 NA
ATOM     16  S   UNL     1      25.246  26.964  45.426  1.00  0.00    -0.105 S 
ATOM     17  C   UNL     1      25.447  25.834  43.157  1.00  0.00     0.085 A 
ATOM     18  C   UNL     1      24.804  26.888  43.773  1.00  0.00     0.097 A 
BRANCH  17  19
ATOM     19  C   UNL     1      25.318  25.480  41.746  1.00  0.00     0.019 A 
ATOM     20  C   UNL     1      24.796  24.261  41.301  1.00  0.00     0.013 A 
ATOM     21  C   UNL     1      25.719  26.384  40.763  1.00  0.00     0.121 A 
ATOM     22  C   UNL     1      24.696  24.002  39.932  1.00  0.00     0.021 A 
ATOM     23  N   UNL     1      25.635  26.160  39.426  1.00  0.00    -0.264 NA
ATOM     24  C   UNL     1      25.125  24.973  39.043  1.00  0.00     0.111 A 
ENDBRANCH  17  19
ENDBRANCH  12  14
ENDBRANCH   8  12
ENDBRANCH   1   5
BRANCH   2  25
ATOM     25  C   UNL     1      32.699  29.444  45.827  1.00  0.00     0.040 A 
ATOM     26  C   UNL     1      34.083  29.628  45.755  1.00  0.00     0.014 A 
ATOM     27  C   UNL     1      31.875  30.506  46.219  1.00  0.00     0.014 A 
ATOM     28  C   UNL     1      34.638  30.877  46.041  1.00  0.00     0.006 A 
ATOM     29  C   UNL     1      32.434  31.755  46.508  1.00  0.00     0.006 A 
ATOM     30  C   UNL     1      33.819  31.955  46.410  1.00  0.00    -0.034 A 
BRANCH  30  31
ATOM     31  C   UNL     1      34.427  33.307  46.738  1.00  0.00     0.120 C 
BRANCH  31  32
ATOM     32  N   UNL     1      33.846  34.401  45.937  1.00  0.00    -0.297 NA
ATOM     33  C   UNL     1      32.589  33.964  45.302  1.00  0.00     0.100 C 
ATOM     34  C   UNL     1      34.787  34.869  44.890  1.00  0.00     0.100 C 
ATOM     35  C   UNL     1      32.738  32.901  44.179  1.00  0.00     0.099 C 
ATOM     36  C   UNL     1      34.591  34.273  43.468  1.00  0.00     0.099 C 
ATOM     37  N   UNL     1      34.051  32.909  43.506  1.00  0.00    -0.304 NA
ATOM     38  C   UNL     1      33.968  32.320  42.174  1.00  0.00     0.105 C 
ENDBRANCH  31  32
ENDBRANCH  30  31
ENDBRANCH   2  25
TORSDOF 7
ENDMDL
MODEL 4
REMARK VINA RESULT:     2.767      2.471     10.651
REMARK INTER + INTRA:           4.424
REMARK INTER:                   5.186
REMARK INTRA:                  -0.762
REMARK UNBOUND:                 0.524
REMARK SMILES Cc1ccc(NC(=O)c2ccc(CN3CCN(C)CC3)cc2)cc1Nc1nc(-c2cccnc2)cs1
REMARK SMILES IDX 6 1 7 2 8 3 5 5 2 6 3 7 24 8 4 9 23 10 1 11 25 12 26 14
REMARK SMILES IDX 27 15 36 16 28 17 35 18 29 19 30 20 34 21 31 22 33 23 32 24
REMARK SMILES IDX 9 25 10 26 22 27 11 28 21 29 12 30 13 31 14 32 15 33 20 34
REMARK SMILES IDX 16 35 19 36 17 37 18 38
REMARK H PARENT 6 4 25 13
ROOT
ATOM      1  N   UNL     1      27.348  24.918  44.271  1.00  0.00    -0.322 N 
ATOM      2  C   UNL     1      26.110  25.536  44.275  1.00  0.00     0.255 C 
ATOM      3  O   UNL     1      25.580  26.117  45.214  1.00  0.00    -0.269 OA
ATOM      4  H   UNL     1      27.700  24.615  43.373  1.00  0.00     0.170 HD
ENDROOT
BRANCH   1   5
ATOM      5  C   UNL     1      28.235  24.775  45.358  1.00  0.00     0.043 A 
ATOM      6  C   UNL     1      29.981  24.309  47.529  1.00  0.00    -0.027 A 
ATOM      7  C   UNL     1      29.145  23.290  47.053  1.00  0.00     0.008 A 
ATOM      8  C   UNL     1      29.918  25.581  46.930  1.00  0.00     0.045 A 
ATOM      9  C   UNL     1      28.283  23.522  45.978  1.00  0.00     0.026 A 
ATOM     10  C   UNL     1      29.047  25.799  45.847  1.00  0.00     0.052 A 
ATOM     11  C   UNL     1      30.898  24.025  48.686  1.00  0.00     0.046 C 
BRANCH   8  12
ATOM     12  N   UNL     1      30.714  26.648  47.412  1.00  0.00    -0.331 N 
ATOM     13  H   UNL     1      31.213  26.373  48.254  1.00  0.00     0.169 HD
BRANCH  12  14
ATOM     14  C   UNL     1      31.512  27.405  46.611  1.00  0.00     0.187 A 
ATOM     15  N   UNL     1      31.599  28.709  46.771  1.00  0.00    -0.220 NA
ATOM     16  S   UNL     1      32.468  26.795  45.307  1.00  0.00    -0.105 S 
ATOM     17  C   UNL     1      32.446  29.283  45.835  1.00  0.00     0.085 A 
ATOM     18  C   UNL     1      33.017  28.380  44.961  1.00  0.00     0.097 A 
BRANCH  17  19
ATOM     19  C   UNL     1      32.675  30.724  45.822  1.00  0.00     0.019 A 
ATOM     20  C   UNL     1      31.719  31.654  45.398  1.00  0.00     0.013 A 
ATOM     21  C   UNL     1      33.895  31.239  46.259  1.00  0.00     0.121 A 
ATOM     22  C   UNL     1      32.011  33.019  45.426  1.00  0.00     0.021 A 
ATOM     23  N   UNL     1      34.208  32.561  46.297  1.00  0.00    -0.264 NA
ATOM     24  C   UNL     1      33.256  33.419  45.880  1.00  0.00     0.111 A 
ENDBRANCH  17  19
ENDBRANCH  12  14
ENDBRANCH   8  12
ENDBRANCH   1   5
BRANCH   2  25
ATOM     25  C   UNL     1      25.403  25.513  42.963  1.00  0.00     0.040 A 
ATOM     26  C   UNL     1      26.125  25.152  41.822  1.00  0.00     0.014 A 
ATOM     27  C   UNL     1      24.050  25.857  42.852  1.00  0.00     0.014 A 
ATOM     28  C   UNL     1      25.488  25.101  40.580  1.00  0.00     0.006 A 
ATOM     29  C   UNL     1      23.417  25.810  41.607  1.00  0.00     0.006 A 
ATOM     30  C   UNL     1      24.126  25.420  40.461  1.00  0.00    -0.034 A 
BRANCH  30  31
ATOM     31  C   UNL     1      23.442  25.381  39.106  1.00  0.00     0.120 C 
BRANCH  31  32
ATOM     32  N   UNL     1      24.338  25.781  38.006  1.00  0.00    -0.297 NA
ATOM     33  C   UNL     1      23.607  26.589  37.013  1.00  0.00     0.100 C 
ATOM     34  C   UNL     1      24.937  24.602  37.333  1.00  0.00     0.100 C 
ATOM     35  C   UNL     1      22.538  25.827  36.183  1.00  0.00     0.099 C 
ATOM     36  C   UNL     1      24.232  24.114  36.037  1.00  0.00     0.099 C 
ATOM     37  N   UNL     1      22.787  24.378  36.055  1.00  0.00    -0.304 NA
ATOM     38  C   UNL     1      22.119  23.825  34.883  1.00  0.00     0.105 C 
ENDBRANCH  31  32
ENDBRANCH  30  31
ENDBRANCH   2  25
TORSDOF 7
ENDMDL
