MODEL 1
REMARK VINA RESULT:   -12.814      0.000      0.000
REMARK INTER + INTRA:         -18.388
REMARK INTER:                 -18.058
REMARK INTRA:                  -0.330
REMARK UNBOUND:                -0.330
REMARK SMILES Cc1ccc(NC(=O)c2ccc(CN3CCN(C)CC3)cc2)cc1Nc1nc(-c2cccnc2)cs1
REMARK SMILES IDX 6 1 7 2 8 3 5 5 2 6 3 7 24 8 4 9 23 10 1 11 25 12 26 14
REMARK SMILES IDX 27 15 36 16 28 17 35 18 29 19 30 20 34 21 31 22 33 23 32 24
REMARK SMILES IDX 9 25 10 26 22 27 11 28 21 29 12 30 13 31 14 32 15 33 20 34
REMARK SMILES IDX 16 35 19 36 17 37 18 38
REMARK H PARENT 6 4 25 13
ROOT
ATOM      1  N   UNL     1      24.259  26.065  40.067  1.00  0.00    -0.322 N 
ATOM      2  C   UNL     1      24.904  25.274  39.133  1.00  0.00     0.255 C 
ATOM      3  O   UNL     1      25.675  24.349  39.359  1.00  0.00    -0.269 OA
ATOM      4  H   UNL     1      23.543  26.687  39.716  1.00  0.00     0.170 HD
ENDROOT
BRANCH   1   5
ATOM      5  C   UNL     1      24.395  26.016  41.470  1.00  0.00     0.043 A 
ATOM      6  C   UNL     1      24.499  25.983  44.292  1.00  0.00    -0.027 A 
ATOM      7  C   UNL     1      23.457  26.638  43.624  1.00  0.00     0.008 A 
ATOM      8  C   UNL     1      25.515  25.367  43.539  1.00  0.00     0.045 A 
ATOM      9  C   UNL     1      23.405  26.651  42.228  1.00  0.00     0.026 A 
ATOM     10  C   UNL     1      25.449  25.387  42.133  1.00  0.00     0.052 A 
ATOM     11  C   UNL     1      24.522  25.987  45.796  1.00  0.00     0.046 C 
BRANCH   8  12
ATOM     12  N   UNL     1      26.609  24.735  44.177  1.00  0.00    -0.331 N 
ATOM     13  H   UNL     1      26.801  23.831  43.752  1.00  0.00     0.169 HD
BRANCH  12  14
ATOM     14  C   UNL     1      27.771  25.377  44.479  1.00  0.00     0.187 A 
ATOM     15  N   UNL     1      28.658  24.836  45.287  1.00  0.00    -0.220 NA
ATOM     16  S   UNL     1      28.220  26.938  43.889  1.00  0.00    -0.105 S 
ATOM     17  C   UNL     1      29.752  25.669  45.474  1.00  0.00     0.085 A 
ATOM     18  C   UNL     1      29.683  26.857  44.775  1.00  0.00     0.097 A 
BRANCH  17  19
ATOM     19  C   UNL     1      30.850  25.270  46.348  1.00  0.00     0.019 A 
ATOM     20  C   UNL     1      31.958  26.081  46.615  1.00  0.00     0.013 A 
ATOM     21  C   UNL     1      30.823  24.025  46.976  1.00  0.00     0.121 A 
ATOM     22  C   UNL     1      32.964  25.631  47.473  1.00  0.00     0.021 A 
ATOM     23  N   UNL     1      31.786  23.560  47.814  1.00  0.00    -0.264 NA
ATOM     24  C   UNL     1      32.834  24.376  48.042  1.00  0.00     0.111 A 
ENDBRANCH  17  19
ENDBRANCH  12  14
ENDBRANCH   8  12
ENDBRANCH   1   5
BRANCH   2  25
ATOM     25  C   UNL     1      24.555  25.579  37.717  1.00  0.00     0.040 A 
ATOM     26  C   UNL     1      23.385  26.297  37.457  1.00  0.00     0.014 A 
ATOM     27  C   UNL     1      25.361  25.152  36.655  1.00  0.00     0.014 A 
ATOM     28  C   UNL     1      23.039  26.617  36.143  1.00  0.00     0.006 A 
ATOM     29  C   UNL     1      25.010  25.470  35.339  1.00  0.00     0.006 A 
ATOM     30  C   UNL     1      23.853  26.216  35.071  1.00  0.00    -0.034 A 
BRANCH  30  31
ATOM     31  C   UNL     1      23.464  26.551  33.643  1.00  0.00     0.120 C 
BRANCH  31  32
ATOM     32  N   UNL     1      23.764  27.949  33.284  1.00  0.00    -0.297 NA
ATOM     33  C   UNL     1      22.746  28.855  33.845  1.00  0.00     0.100 C 
ATOM     34  C   UNL     1      23.828  28.134  31.814  1.00  0.00     0.100 C 
ATOM     35  C   UNL     1      21.330  28.748  33.214  1.00  0.00     0.099 C 
ATOM     36  C   UNL     1      22.539  28.664  31.127  1.00  0.00     0.099 C 
ATOM     37  N   UNL     1      21.321  28.241  31.828  1.00  0.00    -0.304 NA
ATOM     38  C   UNL     1      20.114  28.655  31.120  1.00  0.00     0.105 C 
ENDBRANCH  31  32
ENDBRANCH  30  31
ENDBRANCH   2  25
TORSDOF 7
ENDMDL
MODEL 2
REMARK VINA RESULT:   -11.912      2.830     12.778
REMARK INTER + INTRA:         -17.117
REMARK INTER:                 -16.412
REMARK INTRA:                  -0.705
REMARK UNBOUND:                -0.330
REMARK SMILES Cc1ccc(NC(=O)c2ccc(CN3CCN(C)CC3)cc2)cc1Nc1nc(-c2cccnc2)cs1
REMARK SMILES IDX 6 1 7 2 8 3 5 5 2 6 3 7 24 8 4 9 23 10 1 11 25 12 26 14
REMARK SMILES IDX 27 15 36 16 28 17 35 18 29 19 30 20 34 21 31 22 33 23 32 24
REMARK SMILES IDX 9 25 10 26 22 27 11 28 21 29 12 30 13 31 14 32 15 33 20 34
REMARK SMILES IDX 16 35 19 36 17 37 18 38
REMARK H PARENT 6 4 25 13
ROOT
ATOM      1  N   UNL     1      28.105  26.398  44.693  1.00  0.00    -0.322 N 
ATOM      2  C   UNL     1      28.707  25.294  45.270  1.00  0.00     0.255 C 
ATOM      3  O   UNL     1      28.290  24.143  45.267  1.00  0.00    -0.269 OA
ATOM      4  H   UNL     1      28.653  27.247  44.659  1.00  0.00     0.170 HD
ENDROOT
BRANCH   1   5
ATOM      5  C   UNL     1      26.861  26.445  44.030  1.00  0.00     0.043 A 
ATOM      6  C   UNL     1      24.289  26.542  42.865  1.00  0.00    -0.027 A 
ATOM      7  C   UNL     1      24.443  26.317  44.239  1.00  0.00     0.008 A 
ATOM      8  C   UNL     1      25.436  26.688  42.063  1.00  0.00     0.045 A 
ATOM      9  C   UNL     1      25.715  26.271  44.814  1.00  0.00     0.026 A 
ATOM     10  C   UNL     1      26.712  26.641  42.656  1.00  0.00     0.052 A 
ATOM     11  C   UNL     1      22.905  26.587  42.279  1.00  0.00     0.046 C 
BRANCH   8  12
ATOM     12  N   UNL     1      25.324  26.871  40.664  1.00  0.00    -0.331 N 
ATOM     13  H   UNL     1      25.946  27.611  40.347  1.00  0.00     0.169 HD
BRANCH  12  14
ATOM     14  C   UNL     1      25.315  25.841  39.774  1.00  0.00     0.187 A 
ATOM     15  N   UNL     1      25.323  26.062  38.476  1.00  0.00    -0.220 NA
ATOM     16  S   UNL     1      25.269  24.167  40.199  1.00  0.00    -0.105 S 
ATOM     17  C   UNL     1      25.287  24.877  37.756  1.00  0.00     0.085 A 
ATOM     18  C   UNL     1      25.264  23.741  38.540  1.00  0.00     0.097 A 
BRANCH  17  19
ATOM     19  C   UNL     1      25.274  24.892  36.297  1.00  0.00     0.019 A 
ATOM     20  C   UNL     1      26.210  24.214  35.510  1.00  0.00     0.013 A 
ATOM     21  C   UNL     1      24.283  25.600  35.617  1.00  0.00     0.121 A 
ATOM     22  C   UNL     1      26.123  24.269  34.116  1.00  0.00     0.021 A 
ATOM     23  N   UNL     1      24.173  25.673  34.265  1.00  0.00    -0.264 NA
ATOM     24  C   UNL     1      25.097  25.004  33.547  1.00  0.00     0.111 A 
ENDBRANCH  17  19
ENDBRANCH  12  14
ENDBRANCH   8  12
ENDBRANCH   1   5
BRANCH   2  25
ATOM     25  C   UNL     1      30.024  25.571  45.909  1.00  0.00     0.040 A 
ATOM     26  C   UNL     1      30.475  26.894  45.965  1.00  0.00     0.014 A 
ATOM     27  C   UNL     1      30.815  24.543  46.435  1.00  0.00     0.014 A 
ATOM     28  C   UNL     1      31.695  27.190  46.574  1.00  0.00     0.006 A 
ATOM     29  C   UNL     1      32.039  24.843  47.040  1.00  0.00     0.006 A 
ATOM     30  C   UNL     1      32.485  26.170  47.127  1.00  0.00    -0.034 A 
BRANCH  30  31
ATOM     31  C   UNL     1      33.820  26.495  47.772  1.00  0.00     0.120 C 
BRANCH  31  32
ATOM     32  N   UNL     1      34.923  26.557  46.796  1.00  0.00    -0.297 NA
ATOM     33  C   UNL     1      36.222  26.388  47.473  1.00  0.00     0.100 C 
ATOM     34  C   UNL     1      34.922  27.841  46.053  1.00  0.00     0.100 C 
ATOM     35  C   UNL     1      36.656  27.559  48.396  1.00  0.00     0.099 C 
ATOM     36  C   UNL     1      35.874  28.948  46.584  1.00  0.00     0.099 C 
ATOM     37  N   UNL     1      36.069  28.864  48.037  1.00  0.00    -0.304 NA
ATOM     38  C   UNL     1      36.880  29.968  48.541  1.00  0.00     0.105 C 
ENDBRANCH  31  32
ENDBRANCH  30  31
ENDBRANCH   2  25
TORSDOF 7
ENDMDL
MODEL 3
REMARK VINA RESULT:   -11.710      0.941      1.650
REMARK INTER + INTRA:         -16.831
REMARK INTER:                 -17.010
REMARK INTRA:                   0.179
REMARK UNBOUND:                -0.330
REMARK SMILES Cc1ccc(NC(=O)c2ccc(CN3CCN(C)CC3)cc2)cc1Nc1nc(-c2cccnc2)cs1
REMARK SMILES IDX 6 1 7 2 8 3 5 5 2 6 3 7 24 8 4 9 23 10 1 11 25 12 26 14
REMARK SMILES IDX 27 15 36 16 28 17 35 18 29 19 30 20 34 21 31 22 33 23 32 24
REMARK SMILES IDX 9 25 10 26 22 27 11 28 21 29 12 30 13 31 14 32 15 33 20 34
REMARK SMILES IDX 16 35 19 36 17 37 18 38
REMARK H PARENT 6 4 25 13
ROOT
ATOM      1  N   UNL     1      24.517  26.180  40.029  1.00  0.00    -0.322 N 
ATOM      2  C   UNL     1      25.006  25.267  39.112  1.00  0.00     0.255 C 
ATOM      3  O   UNL     1      25.531  24.187  39.355  1.00  0.00    -0.269 OA
ATOM      4  H   UNL     1      23.981  26.952  39.658  1.00  0.00     0.170 HD
ENDROOT
BRANCH   1   5
ATOM      5  C   UNL     1      24.570  26.090  41.436  1.00  0.00     0.043 A 
ATOM      6  C   UNL     1      24.506  25.974  44.257  1.00  0.00    -0.027 A 
ATOM      7  C   UNL     1      23.491  26.627  43.546  1.00  0.00     0.008 A 
ATOM      8  C   UNL     1      25.578  25.401  43.549  1.00  0.00     0.045 A 
ATOM      9  C   UNL     1      23.523  26.682  42.151  1.00  0.00     0.026 A 
ATOM     10  C   UNL     1      25.596  25.463  42.143  1.00  0.00     0.052 A 
ATOM     11  C   UNL     1      24.439  25.932  45.759  1.00  0.00     0.046 C 
BRANCH   8  12
ATOM     12  N   UNL     1      26.645  24.772  44.234  1.00  0.00    -0.331 N 
ATOM     13  H   UNL     1      26.841  23.858  43.832  1.00  0.00     0.169 HD
BRANCH  12  14
ATOM     14  C   UNL     1      27.804  25.409  44.558  1.00  0.00     0.187 A 
ATOM     15  N   UNL     1      28.694  24.845  45.347  1.00  0.00    -0.220 NA
ATOM     16  S   UNL     1      28.244  26.992  44.025  1.00  0.00    -0.105 S 
ATOM     17  C   UNL     1      29.783  25.676  45.564  1.00  0.00     0.085 A 
ATOM     18  C   UNL     1      29.708  26.888  44.908  1.00  0.00     0.097 A 
BRANCH  17  19
ATOM     19  C   UNL     1      30.883  25.252  46.424  1.00  0.00     0.019 A 
ATOM     20  C   UNL     1      30.920  24.017  47.078  1.00  0.00     0.013 A 
ATOM     21  C   UNL     1      31.978  26.094  46.619  1.00  0.00     0.121 A 
ATOM     22  C   UNL     1      32.016  23.680  47.877  1.00  0.00     0.021 A 
ATOM     23  N   UNL     1      33.057  25.795  47.389  1.00  0.00    -0.264 NA
ATOM     24  C   UNL     1      33.048  24.594  47.999  1.00  0.00     0.111 A 
ENDBRANCH  17  19
ENDBRANCH  12  14
ENDBRANCH   8  12
ENDBRANCH   1   5
BRANCH   2  25
ATOM     25  C   UNL     1      24.806  25.655  37.687  1.00  0.00     0.040 A 
ATOM     26  C   UNL     1      25.342  24.835  36.690  1.00  0.00     0.014 A 
ATOM     27  C   UNL     1      24.113  26.819  37.334  1.00  0.00     0.014 A 
ATOM     28  C   UNL     1      25.156  25.159  35.345  1.00  0.00     0.006 A 
ATOM     29  C   UNL     1      23.932  27.143  35.986  1.00  0.00     0.006 A 
ATOM     30  C   UNL     1      24.440  26.309  34.978  1.00  0.00    -0.034 A 
BRANCH  30  31
ATOM     31  C   UNL     1      24.256  26.668  33.515  1.00  0.00     0.120 C 
BRANCH  31  32
ATOM     32  N   UNL     1      22.837  26.819  33.141  1.00  0.00    -0.297 NA
ATOM     33  C   UNL     1      22.716  27.219  31.727  1.00  0.00     0.100 C 
ATOM     34  C   UNL     1      22.152  27.821  33.994  1.00  0.00     0.100 C 
ATOM     35  C   UNL     1      23.204  28.655  31.391  1.00  0.00     0.099 C 
ATOM     36  C   UNL     1      22.035  29.258  33.415  1.00  0.00     0.099 C 
ATOM     37  N   UNL     1      23.156  29.594  32.528  1.00  0.00    -0.304 NA
ATOM     38  C   UNL     1      23.092  30.978  32.072  1.00  0.00     0.105 C 
ENDBRANCH  31  32
ENDBRANCH  30  31
ENDBRANCH   2  25
TORSDOF 7
ENDMDL
MODEL 4
REMARK VINA RESULT:   -10.548      4.880     10.252
REMARK INTER + INTRA:         -15.194
REMARK INTER:                 -15.164
REMARK INTRA:                  -0.030
REMARK UNBOUND:                -0.330
REMARK SMILES Cc1ccc(NC(=O)c2ccc(CN3CCN(C)CC3)cc2)cc1Nc1nc(-c2cccnc2)cs1
REMARK SMILES IDX 6 1 7 2 8 3 5 5 2 6 3 7 24 8 4 9 23 10 1 11 25 12 26 14
REMARK SMILES IDX 27 15 36 16 28 17 35 18 29 19 30 20 34 21 31 22 33 23 32 24
REMARK SMILES IDX 9 25 10 26 22 27 11 28 21 29 12 30 13 31 14 32 15 33 20 34
REMARK SMILES IDX 16 35 19 36 17 37 18 38
REMARK H PARENT 6 4 25 13
ROOT
ATOM      1  N   UNL     1      32.170  26.037  46.895  1.00  0.00    -0.322 N 
ATOM      2  C   UNL     1      31.316  25.046  46.444  1.00  0.00     0.255 C 
ATOM      3  O   UNL     1      31.421  23.841  46.635  1.00  0.00    -0.269 OA
ATOM      4  H   UNL     1      31.859  26.991  46.776  1.00  0.00     0.170 HD
ENDROOT
BRANCH   1   5
ATOM      5  C   UNL     1      33.370  25.868  47.617  1.00  0.00     0.043 A 
ATOM      6  C   UNL     1      35.710  25.369  49.118  1.00  0.00    -0.027 A 
ATOM      7  C   UNL     1      34.585  24.545  49.253  1.00  0.00     0.008 A 
ATOM      8  C   UNL     1      35.650  26.471  48.245  1.00  0.00     0.045 A 
ATOM      9  C   UNL     1      33.429  24.792  48.509  1.00  0.00     0.026 A 
ATOM     10  C   UNL     1      34.479  26.707  47.501  1.00  0.00     0.052 A 
ATOM     11  C   UNL     1      36.939  25.073  49.933  1.00  0.00     0.046 C 
BRANCH   8  12
ATOM     12  N   UNL     1      36.749  27.353  48.115  1.00  0.00    -0.331 N 
ATOM     13  H   UNL     1      37.507  26.910  47.601  1.00  0.00     0.169 HD
BRANCH  12  14
ATOM     14  C   UNL     1      36.621  28.657  47.747  1.00  0.00     0.187 A 
ATOM     15  N   UNL     1      36.489  28.999  46.483  1.00  0.00    -0.220 NA
ATOM     16  S   UNL     1      36.638  29.998  48.837  1.00  0.00    -0.105 S 
ATOM     17  C   UNL     1      36.400  30.375  46.333  1.00  0.00     0.085 A 
ATOM     18  C   UNL     1      36.453  31.077  47.520  1.00  0.00     0.097 A 
BRANCH  17  19
ATOM     19  C   UNL     1      36.263  30.972  45.008  1.00  0.00     0.019 A 
ATOM     20  C   UNL     1      35.521  30.394  43.973  1.00  0.00     0.013 A 
ATOM     21  C   UNL     1      36.884  32.189  44.726  1.00  0.00     0.121 A 
ATOM     22  C   UNL     1      35.430  31.034  42.735  1.00  0.00     0.021 A 
ATOM     23  N   UNL     1      36.815  32.834  43.532  1.00  0.00    -0.264 NA
ATOM     24  C   UNL     1      36.088  32.240  42.565  1.00  0.00     0.111 A 
ENDBRANCH  17  19
ENDBRANCH  12  14
ENDBRANCH   8  12
ENDBRANCH   1   5
BRANCH   2  25
ATOM     25  C   UNL     1      30.129  25.546  45.697  1.00  0.00     0.040 A 
ATOM     26  C   UNL     1      28.950  24.796  45.735  1.00  0.00     0.014 A 
ATOM     27  C   UNL     1      30.176  26.732  44.953  1.00  0.00     0.014 A 
ATOM     28  C   UNL     1      27.813  25.247  45.061  1.00  0.00     0.006 A 
ATOM     29  C   UNL     1      29.037  27.178  44.276  1.00  0.00     0.006 A 
ATOM     30  C   UNL     1      27.841  26.447  44.334  1.00  0.00    -0.034 A 
BRANCH  30  31
ATOM     31  C   UNL     1      26.608  26.924  43.588  1.00  0.00     0.120 C 
BRANCH  31  32
ATOM     32  N   UNL     1      25.532  25.916  43.564  1.00  0.00    -0.297 NA
ATOM     33  C   UNL     1      25.925  24.763  42.734  1.00  0.00     0.100 C 
ATOM     34  C   UNL     1      24.263  26.483  43.046  1.00  0.00     0.100 C 
ATOM     35  C   UNL     1      26.026  25.037  41.208  1.00  0.00     0.099 C 
ATOM     36  C   UNL     1      23.963  26.245  41.541  1.00  0.00     0.099 C 
ATOM     37  N   UNL     1      25.188  26.156  40.736  1.00  0.00    -0.304 NA
ATOM     38  C   UNL     1      24.895  26.036  39.311  1.00  0.00     0.105 C 
ENDBRANCH  31  32
ENDBRANCH  30  31
ENDBRANCH   2  25
TORSDOF 7
ENDMDL
MODEL 5
REMARK VINA RESULT:   -10.276      5.940     13.212
REMARK INTER + INTRA:         -14.812
REMARK INTER:                 -15.023
REMARK INTRA:                   0.211
REMARK UNBOUND:                -0.330
REMARK SMILES Cc1ccc(NC(=O)c2ccc(CN3CCN(C)CC3)cc2)cc1Nc1nc(-c2cccnc2)cs1
REMARK SMILES IDX 6 1 7 2 8 3 5 5 2 6 3 7 24 8 4 9 23 10 1 11 25 12 26 14
REMARK SMILES IDX 27 15 36 16 28 17 35 18 29 19 30 20 34 21 31 22 33 23 32 24
REMARK SMILES IDX 9 25 10 26 22 27 11 28 21 29 12 30 13 31 14 32 15 33 20 34
REMARK SMILES IDX 16 35 19 36 17 37 18 38
REMARK H PARENT 6 4 25 13
ROOT
ATOM      1  N   UNL     1      33.471  27.413  46.513  1.00  0.00    -0.322 N 
ATOM      2  C   UNL     1      34.839  27.426  46.725  1.00  0.00     0.255 C 
ATOM      3  O   UNL     1      35.555  26.463  46.968  1.00  0.00    -0.269 OA
ATOM      4  H   UNL     1      33.056  28.271  46.179  1.00  0.00     0.170 HD
ENDROOT
BRANCH   1   5
ATOM      5  C   UNL     1      32.605  26.302  46.589  1.00  0.00     0.043 A 
ATOM      6  C   UNL     1      31.010  23.981  46.806  1.00  0.00    -0.027 A 
ATOM      7  C   UNL     1      32.400  23.909  46.958  1.00  0.00     0.008 A 
ATOM      8  C   UNL     1      30.417  25.223  46.511  1.00  0.00     0.045 A 
ATOM      9  C   UNL     1      33.188  25.058  46.853  1.00  0.00     0.026 A 
ATOM     10  C   UNL     1      31.223  26.372  46.410  1.00  0.00     0.052 A 
ATOM     11  C   UNL     1      30.192  22.725  46.928  1.00  0.00     0.046 C 
BRANCH   8  12
ATOM     12  N   UNL     1      29.021  25.329  46.305  1.00  0.00    -0.331 N 
ATOM     13  H   UNL     1      28.568  25.741  47.117  1.00  0.00     0.169 HD
BRANCH  12  14
ATOM     14  C   UNL     1      28.469  25.808  45.157  1.00  0.00     0.187 A 
ATOM     15  N   UNL     1      27.165  25.815  44.979  1.00  0.00    -0.220 NA
ATOM     16  S   UNL     1      29.363  26.426  43.813  1.00  0.00    -0.105 S 
ATOM     17  C   UNL     1      26.823  26.322  43.733  1.00  0.00     0.085 A 
ATOM     18  C   UNL     1      27.902  26.714  42.967  1.00  0.00     0.097 A 
BRANCH  17  19
ATOM     19  C   UNL     1      25.425  26.406  43.322  1.00  0.00     0.019 A 
ATOM     20  C   UNL     1      24.359  26.482  44.224  1.00  0.00     0.013 A 
ATOM     21  C   UNL     1      25.099  26.424  41.966  1.00  0.00     0.121 A 
ATOM     22  C   UNL     1      23.047  26.571  43.750  1.00  0.00     0.021 A 
ATOM     23  N   UNL     1      23.834  26.509  41.476  1.00  0.00    -0.264 NA
ATOM     24  C   UNL     1      22.839  26.581  42.382  1.00  0.00     0.111 A 
ENDBRANCH  17  19
ENDBRANCH  12  14
ENDBRANCH   8  12
ENDBRANCH   1   5
BRANCH   2  25
ATOM     25  C   UNL     1      35.473  28.766  46.581  1.00  0.00     0.040 A 
ATOM     26  C   UNL     1      35.276  29.476  45.393  1.00  0.00     0.014 A 
ATOM     27  C   UNL     1      36.267  29.315  47.597  1.00  0.00     0.014 A 
ATOM     28  C   UNL     1      35.840  30.742  45.234  1.00  0.00     0.006 A 
ATOM     29  C   UNL     1      36.834  30.582  47.432  1.00  0.00     0.006 A 
ATOM     30  C   UNL     1      36.616  31.313  46.255  1.00  0.00    -0.034 A 
BRANCH  30  31
ATOM     31  C   UNL     1      37.243  32.683  46.071  1.00  0.00     0.120 C 
BRANCH  31  32
ATOM     32  N   UNL     1      36.462  33.757  46.713  1.00  0.00    -0.297 NA
ATOM     33  C   UNL     1      35.115  33.839  46.121  1.00  0.00     0.100 C 
ATOM     34  C   UNL     1      37.135  35.073  46.585  1.00  0.00     0.100 C 
ATOM     35  C   UNL     1      35.056  34.348  44.654  1.00  0.00     0.099 C 
ATOM     36  C   UNL     1      36.658  35.982  45.419  1.00  0.00     0.099 C 
ATOM     37  N   UNL     1      36.190  35.207  44.264  1.00  0.00    -0.304 NA
ATOM     38  C   UNL     1      35.842  36.066  43.137  1.00  0.00     0.105 C 
ENDBRANCH  31  32
ENDBRANCH  30  31
ENDBRANCH   2  25
TORSDOF 7
ENDMDL
MODEL 6
REMARK VINA RESULT:   -10.270      3.651     11.903
REMARK INTER + INTRA:         -14.802
REMARK INTER:                 -14.524
REMARK INTRA:                  -0.278
REMARK UNBOUND:                -0.330
REMARK SMILES Cc1ccc(NC(=O)c2ccc(CN3CCN(C)CC3)cc2)cc1Nc1nc(-c2cccnc2)cs1
REMARK SMILES IDX 6 1 7 2 8 3 5 5 2 6 3 7 24 8 4 9 23 10 1 11 25 12 26 14
REMARK SMILES IDX 27 15 36 16 28 17 35 18 29 19 30 20 34 21 31 22 33 23 32 24
REMARK SMILES IDX 9 25 10 26 22 27 11 28 21 29 12 30 13 31 14 32 15 33 20 34
REMARK SMILES IDX 16 35 19 36 17 37 18 38
REMARK H PARENT 6 4 25 13
ROOT
ATOM      1  N   UNL     1      23.630  26.214  35.121  1.00  0.00    -0.322 N 
ATOM      2  C   UNL     1      24.615  25.305  35.464  1.00  0.00     0.255 C 
ATOM      3  O   UNL     1      25.312  24.650  34.699  1.00  0.00    -0.269 OA
ATOM      4  H   UNL     1      23.252  26.777  35.870  1.00  0.00     0.170 HD
ENDROOT
BRANCH   1   5
ATOM      5  C   UNL     1      23.181  26.539  33.823  1.00  0.00     0.043 A 
ATOM      6  C   UNL     1      22.298  27.012  31.182  1.00  0.00    -0.027 A 
ATOM      7  C   UNL     1      22.848  25.775  31.541  1.00  0.00     0.008 A 
ATOM      8  C   UNL     1      22.220  28.032  32.149  1.00  0.00     0.045 A 
ATOM      9  C   UNL     1      23.282  25.541  32.847  1.00  0.00     0.026 A 
ATOM     10  C   UNL     1      22.660  27.782  33.462  1.00  0.00     0.052 A 
ATOM     11  C   UNL     1      21.838  27.229  29.767  1.00  0.00     0.046 C 
BRANCH   8  12
ATOM     12  N   UNL     1      21.713  29.310  31.815  1.00  0.00    -0.331 N 
ATOM     13  H   UNL     1      21.152  29.265  30.968  1.00  0.00     0.169 HD
BRANCH  12  14
ATOM     14  C   UNL     1      21.140  30.148  32.722  1.00  0.00     0.187 A 
ATOM     15  N   UNL     1      21.802  30.560  33.782  1.00  0.00    -0.220 NA
ATOM     16  S   UNL     1      19.521  30.745  32.631  1.00  0.00    -0.105 S 
ATOM     17  C   UNL     1      21.022  31.383  34.582  1.00  0.00     0.085 A 
ATOM     18  C   UNL     1      19.748  31.599  34.097  1.00  0.00     0.097 A 
BRANCH  17  19
ATOM     19  C   UNL     1      21.557  31.941  35.820  1.00  0.00     0.019 A 
ATOM     20  C   UNL     1      20.987  33.032  36.484  1.00  0.00     0.013 A 
ATOM     21  C   UNL     1      22.689  31.376  36.406  1.00  0.00     0.121 A 
ATOM     22  C   UNL     1      21.553  33.502  37.672  1.00  0.00     0.021 A 
ATOM     23  N   UNL     1      23.263  31.811  37.559  1.00  0.00    -0.264 NA
ATOM     24  C   UNL     1      22.679  32.864  38.164  1.00  0.00     0.111 A 
ENDBRANCH  17  19
ENDBRANCH  12  14
ENDBRANCH   8  12
ENDBRANCH   1   5
BRANCH   2  25
ATOM     25  C   UNL     1      24.854  25.177  36.929  1.00  0.00     0.040 A 
ATOM     26  C   UNL     1      24.328  26.153  37.780  1.00  0.00     0.014 A 
ATOM     27  C   UNL     1      25.598  24.117  37.461  1.00  0.00     0.014 A 
ATOM     28  C   UNL     1      24.517  26.053  39.160  1.00  0.00     0.006 A 
ATOM     29  C   UNL     1      25.789  24.021  38.843  1.00  0.00     0.006 A 
ATOM     30  C   UNL     1      25.240  24.981  39.706  1.00  0.00    -0.034 A 
BRANCH  30  31
ATOM     31  C   UNL     1      25.459  24.885  41.206  1.00  0.00     0.120 C 
BRANCH  31  32
ATOM     32  N   UNL     1      25.457  26.203  41.866  1.00  0.00    -0.297 NA
ATOM     33  C   UNL     1      26.817  26.771  41.887  1.00  0.00     0.100 C 
ATOM     34  C   UNL     1      24.939  26.118  43.254  1.00  0.00     0.100 C 
ATOM     35  C   UNL     1      27.834  26.046  42.811  1.00  0.00     0.099 C 
ATOM     36  C   UNL     1      26.002  26.009  44.382  1.00  0.00     0.099 C 
ATOM     37  N   UNL     1      27.218  25.318  43.937  1.00  0.00    -0.304 NA
ATOM     38  C   UNL     1      28.167  25.129  45.029  1.00  0.00     0.105 C 
ENDBRANCH  31  32
ENDBRANCH  30  31
ENDBRANCH   2  25
TORSDOF 7
ENDMDL
MODEL 7
REMARK VINA RESULT:   -10.140      3.780     12.424
REMARK INTER + INTRA:         -14.620
REMARK INTER:                 -13.864
REMARK INTRA:                  -0.755
REMARK UNBOUND:                -0.330
REMARK SMILES Cc1ccc(NC(=O)c2ccc(CN3CCN(C)CC3)cc2)cc1Nc1nc(-c2cccnc2)cs1
REMARK SMILES IDX 6 1 7 2 8 3 5 5 2 6 3 7 24 8 4 9 23 10 1 11 25 12 26 14
REMARK SMILES IDX 27 15 36 16 28 17 35 18 29 19 30 20 34 21 31 22 33 23 32 24
REMARK SMILES IDX 9 25 10 26 22 27 11 28 21 29 12 30 13 31 14 32 15 33 20 34
REMARK SMILES IDX 16 35 19 36 17 37 18 38
REMARK H PARENT 6 4 25 13
ROOT
ATOM      1  N   UNL     1      23.629  26.190  35.005  1.00  0.00    -0.322 N 
ATOM      2  C   UNL     1      24.683  25.367  35.359  1.00  0.00     0.255 C 
ATOM      3  O   UNL     1      25.464  24.803  34.602  1.00  0.00    -0.269 OA
ATOM      4  H   UNL     1      23.175  26.693  35.755  1.00  0.00     0.170 HD
ENDROOT
BRANCH   1   5
ATOM      5  C   UNL     1      23.192  26.507  33.702  1.00  0.00     0.043 A 
ATOM      6  C   UNL     1      22.318  26.963  31.055  1.00  0.00    -0.027 A 
ATOM      7  C   UNL     1      22.765  25.697  31.451  1.00  0.00     0.008 A 
ATOM      8  C   UNL     1      22.340  28.018  31.986  1.00  0.00     0.045 A 
ATOM      9  C   UNL     1      23.195  25.472  32.761  1.00  0.00     0.026 A 
ATOM     10  C   UNL     1      22.774  27.777  33.302  1.00  0.00     0.052 A 
ATOM     11  C   UNL     1      21.860  27.170  29.637  1.00  0.00     0.046 C 
BRANCH   8  12
ATOM     12  N   UNL     1      21.939  29.324  31.611  1.00  0.00    -0.331 N 
ATOM     13  H   UNL     1      20.929  29.375  31.512  1.00  0.00     0.169 HD
BRANCH  12  14
ATOM     14  C   UNL     1      22.419  30.451  32.204  1.00  0.00     0.187 A 
ATOM     15  N   UNL     1      23.579  30.965  31.853  1.00  0.00    -0.220 NA
ATOM     16  S   UNL     1      21.621  31.320  33.467  1.00  0.00    -0.105 S 
ATOM     17  C   UNL     1      23.883  32.095  32.600  1.00  0.00     0.085 A 
ATOM     18  C   UNL     1      22.917  32.438  33.523  1.00  0.00     0.097 A 
BRANCH  17  19
ATOM     19  C   UNL     1      25.134  32.815  32.383  1.00  0.00     0.019 A 
ATOM     20  C   UNL     1      26.359  32.414  32.925  1.00  0.00     0.013 A 
ATOM     21  C   UNL     1      25.147  33.963  31.591  1.00  0.00     0.121 A 
ATOM     22  C   UNL     1      27.515  33.153  32.662  1.00  0.00     0.021 A 
ATOM     23  N   UNL     1      26.254  34.702  31.318  1.00  0.00    -0.264 NA
ATOM     24  C   UNL     1      27.413  34.277  31.861  1.00  0.00     0.111 A 
ENDBRANCH  17  19
ENDBRANCH  12  14
ENDBRANCH   8  12
ENDBRANCH   1   5
BRANCH   2  25
ATOM     25  C   UNL     1      24.887  25.221  36.828  1.00  0.00     0.040 A 
ATOM     26  C   UNL     1      24.343  26.189  37.678  1.00  0.00     0.014 A 
ATOM     27  C   UNL     1      25.617  24.154  37.365  1.00  0.00     0.014 A 
ATOM     28  C   UNL     1      24.499  26.072  39.060  1.00  0.00     0.006 A 
ATOM     29  C   UNL     1      25.775  24.041  38.750  1.00  0.00     0.006 A 
ATOM     30  C   UNL     1      25.207  24.992  39.611  1.00  0.00    -0.034 A 
BRANCH  30  31
ATOM     31  C   UNL     1      25.389  24.877  41.114  1.00  0.00     0.120 C 
BRANCH  31  32
ATOM     32  N   UNL     1      25.384  26.188  41.788  1.00  0.00    -0.297 NA
ATOM     33  C   UNL     1      26.750  26.738  41.859  1.00  0.00     0.100 C 
ATOM     34  C   UNL     1      24.821  26.095  43.158  1.00  0.00     0.100 C 
ATOM     35  C   UNL     1      27.727  25.989  42.807  1.00  0.00     0.099 C 
ATOM     36  C   UNL     1      25.846  25.960  44.318  1.00  0.00     0.099 C 
ATOM     37  N   UNL     1      27.066  25.257  43.904  1.00  0.00    -0.304 NA
ATOM     38  C   UNL     1      27.977  25.043  45.024  1.00  0.00     0.105 C 
ENDBRANCH  31  32
ENDBRANCH  30  31
ENDBRANCH   2  25
TORSDOF 7
ENDMDL
MODEL 8
REMARK VINA RESULT:    -9.986      3.780     12.148
REMARK INTER + INTRA:         -14.403
REMARK INTER:                 -14.072
REMARK INTRA:                  -0.330
REMARK UNBOUND:                -0.330
REMARK SMILES Cc1ccc(NC(=O)c2ccc(CN3CCN(C)CC3)cc2)cc1Nc1nc(-c2cccnc2)cs1
REMARK SMILES IDX 6 1 7 2 8 3 5 5 2 6 3 7 24 8 4 9 23 10 1 11 25 12 26 14
REMARK SMILES IDX 27 15 36 16 28 17 35 18 29 19 30 20 34 21 31 22 33 23 32 24
REMARK SMILES IDX 9 25 10 26 22 27 11 28 21 29 12 30 13 31 14 32 15 33 20 34
REMARK SMILES IDX 16 35 19 36 17 37 18 38
REMARK H PARENT 6 4 25 13
ROOT
ATOM      1  N   UNL     1      23.529  26.361  34.738  1.00  0.00    -0.322 N 
ATOM      2  C   UNL     1      24.389  25.320  35.042  1.00  0.00     0.255 C 
ATOM      3  O   UNL     1      24.922  24.551  34.252  1.00  0.00    -0.269 OA
ATOM      4  H   UNL     1      23.296  26.991  35.493  1.00  0.00     0.170 HD
ENDROOT
BRANCH   1   5
ATOM      5  C   UNL     1      23.039  26.721  33.465  1.00  0.00     0.043 A 
ATOM      6  C   UNL     1      22.071  27.267  30.869  1.00  0.00    -0.027 A 
ATOM      7  C   UNL     1      22.619  26.016  31.178  1.00  0.00     0.008 A 
ATOM      8  C   UNL     1      22.036  28.263  31.862  1.00  0.00     0.045 A 
ATOM      9  C   UNL     1      23.096  25.747  32.463  1.00  0.00     0.026 A 
ATOM     10  C   UNL     1      22.519  27.977  33.152  1.00  0.00     0.052 A 
ATOM     11  C   UNL     1      21.564  27.523  29.476  1.00  0.00     0.046 C 
BRANCH   8  12
ATOM     12  N   UNL     1      21.532  29.555  31.575  1.00  0.00    -0.331 N 
ATOM     13  H   UNL     1      20.515  29.547  31.555  1.00  0.00     0.169 HD
BRANCH  12  14
ATOM     14  C   UNL     1      21.988  30.686  32.179  1.00  0.00     0.187 A 
ATOM     15  N   UNL     1      21.688  30.958  33.432  1.00  0.00    -0.220 NA
ATOM     16  S   UNL     1      22.963  31.890  31.416  1.00  0.00    -0.105 S 
ATOM     17  C   UNL     1      22.235  32.167  33.836  1.00  0.00     0.085 A 
ATOM     18  C   UNL     1      22.972  32.808  32.862  1.00  0.00     0.097 A 
BRANCH  17  19
ATOM     19  C   UNL     1      22.013  32.669  35.189  1.00  0.00     0.019 A 
ATOM     20  C   UNL     1      21.767  31.841  36.289  1.00  0.00     0.013 A 
ATOM     21  C   UNL     1      22.051  34.041  35.437  1.00  0.00     0.121 A 
ATOM     22  C   UNL     1      21.575  32.399  37.555  1.00  0.00     0.021 A 
ATOM     23  N   UNL     1      21.868  34.613  36.656  1.00  0.00    -0.264 NA
ATOM     24  C   UNL     1      21.634  33.776  37.686  1.00  0.00     0.111 A 
ENDBRANCH  17  19
ENDBRANCH  12  14
ENDBRANCH   8  12
ENDBRANCH   1   5
BRANCH   2  25
ATOM     25  C   UNL     1      24.714  25.190  36.490  1.00  0.00     0.040 A 
ATOM     26  C   UNL     1      24.193  26.134  37.380  1.00  0.00     0.014 A 
ATOM     27  C   UNL     1      25.533  24.160  36.968  1.00  0.00     0.014 A 
ATOM     28  C   UNL     1      24.462  26.030  38.745  1.00  0.00     0.006 A 
ATOM     29  C   UNL     1      25.804  24.060  38.337  1.00  0.00     0.006 A 
ATOM     30  C   UNL     1      25.261  24.987  39.240  1.00  0.00    -0.034 A 
BRANCH  30  31
ATOM     31  C   UNL     1      25.566  24.887  40.723  1.00  0.00     0.120 C 
BRANCH  31  32
ATOM     32  N   UNL     1      25.391  26.171  41.427  1.00  0.00    -0.297 NA
ATOM     33  C   UNL     1      26.699  26.799  41.686  1.00  0.00     0.100 C 
ATOM     34  C   UNL     1      24.669  25.996  42.711  1.00  0.00     0.100 C 
ATOM     35  C   UNL     1      27.596  26.078  42.729  1.00  0.00     0.099 C 
ATOM     36  C   UNL     1      25.546  25.882  43.988  1.00  0.00     0.099 C 
ATOM     37  N   UNL     1      26.852  25.269  43.714  1.00  0.00    -0.304 NA
ATOM     38  C   UNL     1      27.627  25.073  44.934  1.00  0.00     0.105 C 
ENDBRANCH  31  32
ENDBRANCH  30  31
ENDBRANCH   2  25
TORSDOF 7
ENDMDL
MODEL 9
REMARK VINA RESULT:    -9.912      5.875     10.287
REMARK INTER + INTRA:         -14.298
REMARK INTER:                 -13.865
REMARK INTRA:                  -0.434
REMARK UNBOUND:                -0.330
REMARK SMILES Cc1ccc(NC(=O)c2ccc(CN3CCN(C)CC3)cc2)cc1Nc1nc(-c2cccnc2)cs1
REMARK SMILES IDX 6 1 7 2 8 3 5 5 2 6 3 7 24 8 4 9 23 10 1 11 25 12 26 14
REMARK SMILES IDX 27 15 36 16 28 17 35 18 29 19 30 20 34 21 31 22 33 23 32 24
REMARK SMILES IDX 9 25 10 26 22 27 11 28 21 29 12 30 13 31 14 32 15 33 20 34
REMARK SMILES IDX 16 35 19 36 17 37 18 38
REMARK H PARENT 6 4 25 13
ROOT
ATOM      1  N   UNL     1      32.179  25.329  46.662  1.00  0.00    -0.322 N 
ATOM      2  C   UNL     1      31.360  26.382  46.293  1.00  0.00     0.255 C 
ATOM      3  O   UNL     1      31.495  27.561  46.597  1.00  0.00    -0.269 OA
ATOM      4  H   UNL     1      32.011  24.443  46.205  1.00  0.00     0.170 HD
ENDROOT
BRANCH   1   5
ATOM      5  C   UNL     1      33.306  25.378  47.510  1.00  0.00     0.043 A 
ATOM      6  C   UNL     1      35.493  25.334  49.296  1.00  0.00    -0.027 A 
ATOM      7  C   UNL     1      34.357  24.552  49.539  1.00  0.00     0.008 A 
ATOM      8  C   UNL     1      35.519  26.169  48.164  1.00  0.00     0.045 A 
ATOM      9  C   UNL     1      33.276  24.574  48.654  1.00  0.00     0.026 A 
ATOM     10  C   UNL     1      34.425  26.179  47.280  1.00  0.00     0.052 A 
ATOM     11  C   UNL     1      36.639  25.285  50.269  1.00  0.00     0.046 C 
BRANCH   8  12
ATOM     12  N   UNL     1      36.631  27.008  47.909  1.00  0.00    -0.331 N 
ATOM     13  H   UNL     1      37.249  26.587  47.220  1.00  0.00     0.169 HD
BRANCH  12  14
ATOM     14  C   UNL     1      36.521  28.348  47.695  1.00  0.00     0.187 A 
ATOM     15  N   UNL     1      36.295  28.830  46.491  1.00  0.00    -0.220 NA
ATOM     16  S   UNL     1      36.683  29.561  48.915  1.00  0.00    -0.105 S 
ATOM     17  C   UNL     1      36.245  30.216  46.497  1.00  0.00     0.085 A 
ATOM     18  C   UNL     1      36.427  30.782  47.742  1.00  0.00     0.097 A 
BRANCH  17  19
ATOM     19  C   UNL     1      36.019  30.958  45.260  1.00  0.00     0.019 A 
ATOM     20  C   UNL     1      35.615  30.358  44.063  1.00  0.00     0.013 A 
ATOM     21  C   UNL     1      36.195  32.342  45.237  1.00  0.00     0.121 A 
ATOM     22  C   UNL     1      35.409  31.141  42.924  1.00  0.00     0.021 A 
ATOM     23  N   UNL     1      36.003  33.128  44.146  1.00  0.00    -0.264 NA
ATOM     24  C   UNL     1      35.614  32.507  43.015  1.00  0.00     0.111 A 
ENDBRANCH  17  19
ENDBRANCH  12  14
ENDBRANCH   8  12
ENDBRANCH   1   5
BRANCH   2  25
ATOM     25  C   UNL     1      30.238  26.005  45.390  1.00  0.00     0.040 A 
ATOM     26  C   UNL     1      29.311  25.058  45.834  1.00  0.00     0.014 A 
ATOM     27  C   UNL     1      30.104  26.563  44.112  1.00  0.00     0.014 A 
ATOM     28  C   UNL     1      28.236  24.696  45.020  1.00  0.00     0.006 A 
ATOM     29  C   UNL     1      29.029  26.196  43.298  1.00  0.00     0.006 A 
ATOM     30  C   UNL     1      28.078  25.269  43.748  1.00  0.00    -0.034 A 
BRANCH  30  31
ATOM     31  C   UNL     1      26.918  24.860  42.859  1.00  0.00     0.120 C 
BRANCH  31  32
ATOM     32  N   UNL     1      26.398  25.980  42.052  1.00  0.00    -0.297 NA
ATOM     33  C   UNL     1      26.234  27.184  42.887  1.00  0.00     0.100 C 
ATOM     34  C   UNL     1      25.100  25.641  41.420  1.00  0.00     0.100 C 
ATOM     35  C   UNL     1      25.104  27.115  43.950  1.00  0.00     0.099 C 
ATOM     36  C   UNL     1      23.823  26.120  42.164  1.00  0.00     0.099 C 
ATOM     37  N   UNL     1      24.014  26.177  43.618  1.00  0.00    -0.304 NA
ATOM     38  C   UNL     1      22.781  26.528  44.315  1.00  0.00     0.105 C 
ENDBRANCH  31  32
ENDBRANCH  30  31
ENDBRANCH   2  25
TORSDOF 7
ENDMDL
