MODEL 1
REMARK VINA RESULT:   -13.422      0.000      0.000
REMARK INTER + INTRA:         -16.349
REMARK INTER:                 -16.168
REMARK INTRA:                  -0.180
REMARK UNBOUND:                -0.180
REMARK SMILES CC1(C)CCC(C)(C)c2cc(NC(=O)c3ccc(C(=O)O)cc3)ccc21
REMARK SMILES IDX 15 1 16 2 23 3 17 4 22 5 18 6 13 7 14 8 12 9 11 11 10 12
REMARK SMILES IDX 24 13 9 14 25 15 6 16 26 17 5 18 2 19 4 20 7 21 8 22 1 23
REMARK SMILES IDX 3 24 19 25 20 26 21 27
REMARK H PARENT 12 10 21 28
ROOT
ATOM      1  C   UNL     1      40.713  23.158 102.040  1.00  0.00     0.040 A 
ATOM      2  C   UNL     1      39.832  22.566 102.922  1.00  0.00     0.015 A 
ATOM      3  C   UNL     1      40.617  24.487 101.682  1.00  0.00     0.015 A 
ATOM      4  C   UNL     1      38.808  23.338 103.469  1.00  0.00     0.016 A 
ATOM      5  C   UNL     1      39.592  25.258 102.230  1.00  0.00     0.016 A 
ATOM      6  C   UNL     1      38.688  24.684 103.123  1.00  0.00     0.059 A 
ENDROOT
BRANCH   1   7
ATOM      7  C   UNL     1      41.805  22.335 101.457  1.00  0.00     0.255 C 
ATOM      8  O   UNL     1      41.693  21.115 101.514  1.00  0.00    -0.269 OA
ATOM      9  N   UNL     1      42.853  23.057 100.872  1.00  0.00    -0.322 N 
ATOM     10  H   UNL     1      42.835  24.070 100.938  1.00  0.00     0.170 HD
BRANCH   9  11
ATOM     11  C   UNL     1      43.988  22.556 100.232  1.00  0.00     0.041 A 
ATOM     12  C   UNL     1      43.917  21.368  99.508  1.00  0.00     0.030 A 
ATOM     13  C   UNL     1      45.191  23.237 100.317  1.00  0.00     0.026 A 
ATOM     14  C   UNL     1      45.046  20.827  98.853  1.00  0.00    -0.037 A 
ATOM     15  C   UNL     1      46.316  22.736  99.664  1.00  0.00     0.007 A 
ATOM     16  C   UNL     1      44.898  19.510  98.077  1.00  0.00    -0.010 C 
ATOM     17  C   UNL     1      46.267  21.543  98.906  1.00  0.00    -0.038 A 
ATOM     18  C   UNL     1      46.273  18.904  97.720  1.00  0.00     0.012 C 
ATOM     19  C   UNL     1      47.541  21.051  98.208  1.00  0.00    -0.010 C 
ATOM     20  C   UNL     1      47.232  19.947  97.172  1.00  0.00     0.012 C 
ATOM     21  C   UNL     1      44.093  19.784  96.787  1.00  0.00     0.016 C 
ATOM     22  C   UNL     1      44.148  18.437  98.901  1.00  0.00     0.016 C 
ATOM     23  C   UNL     1      48.513  20.508  99.278  1.00  0.00     0.016 C 
ATOM     24  C   UNL     1      48.252  22.187  97.436  1.00  0.00     0.016 C 
ENDBRANCH   9  11
ENDBRANCH   1   7
BRANCH   6  25
ATOM     25  C   UNL     1      37.620  25.490 103.694  1.00  0.00     0.335 C 
ATOM     26  O   UNL     1      36.520  25.063 104.063  1.00  0.00    -0.246 OA
BRANCH  25  27
ATOM     27  O   UNL     1      37.955  26.805 103.791  1.00  0.00    -0.478 OA
ATOM     28  H   UNL     1      38.395  27.131 102.977  1.00  0.00     0.297 HD
ENDBRANCH  25  27
ENDBRANCH   6  25
TORSDOF 4
ENDMDL
MODEL 2
REMARK VINA RESULT:   -12.488      1.265      2.927
REMARK INTER + INTRA:         -15.223
REMARK INTER:                 -15.117
REMARK INTRA:                  -0.106
REMARK UNBOUND:                -0.180
REMARK SMILES CC1(C)CCC(C)(C)c2cc(NC(=O)c3ccc(C(=O)O)cc3)ccc21
REMARK SMILES IDX 15 1 16 2 23 3 17 4 22 5 18 6 13 7 14 8 12 9 11 11 10 12
REMARK SMILES IDX 24 13 9 14 25 15 6 16 26 17 5 18 2 19 4 20 7 21 8 22 1 23
REMARK SMILES IDX 3 24 19 25 20 26 21 27
REMARK H PARENT 12 10 21 28
ROOT
ATOM      1  C   UNL     1      40.923  23.447 101.849  1.00  0.00     0.040 A 
ATOM      2  C   UNL     1      40.667  24.754 101.491  1.00  0.00     0.015 A 
ATOM      3  C   UNL     1      40.109  22.746 102.715  1.00  0.00     0.015 A 
ATOM      4  C   UNL     1      39.546  25.390 102.024  1.00  0.00     0.016 A 
ATOM      5  C   UNL     1      38.987  23.383 103.247  1.00  0.00     0.016 A 
ATOM      6  C   UNL     1      38.706  24.705 102.901  1.00  0.00     0.059 A 
ENDROOT
BRANCH   1   7
ATOM      7  C   UNL     1      42.118  22.769 101.281  1.00  0.00     0.255 C 
ATOM      8  O   UNL     1      43.209  23.306 101.442  1.00  0.00    -0.269 OA
ATOM      9  N   UNL     1      41.866  21.553 100.633  1.00  0.00    -0.322 N 
ATOM     10  H   UNL     1      40.902  21.250 100.536  1.00  0.00     0.170 HD
BRANCH   9  11
ATOM     11  C   UNL     1      42.787  20.693 100.032  1.00  0.00     0.041 A 
ATOM     12  C   UNL     1      43.969  21.199  99.495  1.00  0.00     0.030 A 
ATOM     13  C   UNL     1      42.529  19.334  99.965  1.00  0.00     0.026 A 
ATOM     14  C   UNL     1      44.923  20.360  98.873  1.00  0.00    -0.037 A 
ATOM     15  C   UNL     1      43.461  18.483  99.375  1.00  0.00     0.007 A 
ATOM     16  C   UNL     1      46.201  20.984  98.297  1.00  0.00    -0.010 C 
ATOM     17  C   UNL     1      44.677  18.966  98.840  1.00  0.00    -0.038 A 
ATOM     18  C   UNL     1      46.951  19.997  97.376  1.00  0.00     0.012 C 
ATOM     19  C   UNL     1      45.661  17.972  98.210  1.00  0.00    -0.010 C 
ATOM     20  C   UNL     1      47.051  18.610  97.989  1.00  0.00     0.012 C 
ATOM     21  C   UNL     1      47.116  21.409  99.468  1.00  0.00     0.016 C 
ATOM     22  C   UNL     1      45.896  22.236  97.440  1.00  0.00     0.016 C 
ATOM     23  C   UNL     1      45.084  17.493  96.860  1.00  0.00     0.016 C 
ATOM     24  C   UNL     1      45.887  16.734  99.109  1.00  0.00     0.016 C 
ENDBRANCH   9  11
ENDBRANCH   1   7
BRANCH   6  25
ATOM     25  C   UNL     1      37.536  25.368 103.456  1.00  0.00     0.335 C 
ATOM     26  O   UNL     1      36.524  24.798 103.878  1.00  0.00    -0.246 OA
BRANCH  25  27
ATOM     27  O   UNL     1      37.663  26.723 103.470  1.00  0.00    -0.478 OA
ATOM     28  H   UNL     1      37.740  27.092 102.564  1.00  0.00     0.297 HD
ENDBRANCH  25  27
ENDBRANCH   6  25
TORSDOF 4
ENDMDL
MODEL 3
REMARK VINA RESULT:   -12.426      1.752      3.052
REMARK INTER + INTRA:         -15.149
REMARK INTER:                 -14.717
REMARK INTRA:                  -0.432
REMARK UNBOUND:                -0.180
REMARK SMILES CC1(C)CCC(C)(C)c2cc(NC(=O)c3ccc(C(=O)O)cc3)ccc21
REMARK SMILES IDX 15 1 16 2 23 3 17 4 22 5 18 6 13 7 14 8 12 9 11 11 10 12
REMARK SMILES IDX 24 13 9 14 25 15 6 16 26 17 5 18 2 19 4 20 7 21 8 22 1 23
REMARK SMILES IDX 3 24 19 25 20 26 21 27
REMARK H PARENT 12 10 21 28
ROOT
ATOM      1  C   UNL     1      41.062  23.327 101.641  1.00  0.00     0.040 A 
ATOM      2  C   UNL     1      40.310  22.878 102.706  1.00  0.00     0.015 A 
ATOM      3  C   UNL     1      40.856  24.562 101.061  1.00  0.00     0.015 A 
ATOM      4  C   UNL     1      39.305  23.701 103.215  1.00  0.00     0.016 A 
ATOM      5  C   UNL     1      39.852  25.385 101.571  1.00  0.00     0.016 A 
ATOM      6  C   UNL     1      39.076  24.954 102.648  1.00  0.00     0.059 A 
ENDROOT
BRANCH   1   7
ATOM      7  C   UNL     1      42.132  22.450 101.098  1.00  0.00     0.255 C 
ATOM      8  O   UNL     1      43.293  22.830 101.209  1.00  0.00    -0.269 OA
ATOM      9  N   UNL     1      41.691  21.248 100.529  1.00  0.00    -0.322 N 
ATOM     10  H   UNL     1      40.691  21.084 100.466  1.00  0.00     0.170 HD
BRANCH   9  11
ATOM     11  C   UNL     1      42.463  20.229  99.969  1.00  0.00     0.041 A 
ATOM     12  C   UNL     1      43.152  20.447  98.778  1.00  0.00     0.030 A 
ATOM     13  C   UNL     1      42.545  18.995 100.593  1.00  0.00     0.026 A 
ATOM     14  C   UNL     1      43.938  19.437  98.177  1.00  0.00    -0.037 A 
ATOM     15  C   UNL     1      43.329  17.989 100.033  1.00  0.00     0.007 A 
ATOM     16  C   UNL     1      44.665  19.743  96.861  1.00  0.00    -0.010 C 
ATOM     17  C   UNL     1      44.054  18.189  98.836  1.00  0.00    -0.038 A 
ATOM     18  C   UNL     1      45.186  18.455  96.186  1.00  0.00     0.012 C 
ATOM     19  C   UNL     1      44.902  17.039  98.276  1.00  0.00    -0.010 C 
ATOM     20  C   UNL     1      45.870  17.529  97.177  1.00  0.00     0.012 C 
ATOM     21  C   UNL     1      45.845  20.695  97.157  1.00  0.00     0.016 C 
ATOM     22  C   UNL     1      43.734  20.429  95.833  1.00  0.00     0.016 C 
ATOM     23  C   UNL     1      43.957  15.962  97.700  1.00  0.00     0.016 C 
ATOM     24  C   UNL     1      45.778  16.383  99.370  1.00  0.00     0.016 C 
ENDBRANCH   9  11
ENDBRANCH   1   7
BRANCH   6  25
ATOM     25  C   UNL     1      38.030  25.813 103.179  1.00  0.00     0.335 C 
ATOM     26  O   UNL     1      36.952  25.425 103.644  1.00  0.00    -0.246 OA
BRANCH  25  27
ATOM     27  O   UNL     1      38.357  27.133 103.116  1.00  0.00    -0.478 OA
ATOM     28  H   UNL     1      38.067  27.620 103.917  1.00  0.00     0.297 HD
ENDBRANCH  25  27
ENDBRANCH   6  25
TORSDOF 4
ENDMDL
