REMARK SMILES O=c1[nH]c(Cc2ccccn2)nc2c1cnn2C1CCOCC1
REMARK SMILES IDX 17 1 13 2 14 3 15 4 16 5 2 6 1 7 3 8 4 9 12 10 18 12 19 13
REMARK SMILES IDX 20 14 21 15 23 16 22 17 5 18 6 19 7 20 11 21 8 22 10 23 9 24
REMARK H PARENT 3 11
ROOT
ATOM      1  N   UNL     1      -1.754   1.229  -1.274  1.00  0.00    -0.244 N 
ATOM      2  C   UNL     1      -0.571   1.286  -0.584  1.00  0.00     0.165 A 
ATOM      3  C   UNL     1       0.107   2.366  -1.096  1.00  0.00     0.104 A 
ATOM      4  C   UNL     1      -0.723   2.902  -2.083  1.00  0.00     0.151 A 
ATOM      5  N   UNL     1      -1.867   2.216  -2.202  1.00  0.00    -0.178 NA
ATOM      6  C   UNL     1       1.402   2.686  -0.574  1.00  0.00     0.262 A 
ATOM      7  O   UNL     1       2.108   3.597  -0.988  1.00  0.00    -0.269 OA
ATOM      8  N   UNL     1       1.774   1.837   0.449  1.00  0.00    -0.310 N 
ATOM      9  C   UNL     1       1.017   0.751   0.875  1.00  0.00     0.117 A 
ATOM     10  N   UNL     1      -0.158   0.445   0.397  1.00  0.00    -0.215 NA
ATOM     11  H   UNL     1       2.716   1.951   0.813  1.00  0.00     0.171 HD
ENDROOT
BRANCH   1  12
ATOM     12  C   UNL     1      -2.840   0.271  -1.130  1.00  0.00     0.114 C 
ATOM     13  C   UNL     1      -2.421  -1.157  -1.490  1.00  0.00     0.056 C 
ATOM     14  C   UNL     1      -3.599  -2.101  -1.308  1.00  0.00     0.162 C 
ATOM     15  O   UNL     1      -4.113  -2.015   0.020  1.00  0.00    -0.381 OA
ATOM     16  C   UNL     1      -3.496   0.319   0.254  1.00  0.00     0.056 C 
ATOM     17  C   UNL     1      -4.609  -0.714   0.331  1.00  0.00     0.162 C 
ENDBRANCH   1  12
BRANCH   9  18
ATOM     18  C   UNL     1       1.627  -0.064   1.992  1.00  0.00     0.131 C 
BRANCH  18  19
ATOM     19  C   UNL     1       3.010  -0.543   1.640  1.00  0.00     0.048 A 
ATOM     20  C   UNL     1       3.241  -1.869   1.288  1.00  0.00     0.024 A 
ATOM     21  N   UNL     1       3.994   0.397   1.646  1.00  0.00    -0.261 NA
ATOM     22  C   UNL     1       4.534  -2.254   0.946  1.00  0.00     0.003 A 
ATOM     23  C   UNL     1       5.239  -0.011   1.312  1.00  0.00     0.111 A 
ATOM     24  C   UNL     1       5.555  -1.311   0.959  1.00  0.00     0.020 A 
ENDBRANCH  18  19
ENDBRANCH   9  18
TORSDOF 3
