MODEL 1
REMARK VINA RESULT:   -12.830      0.000      0.000
REMARK INTER + INTRA:         -18.392
REMARK INTER:                 -18.080
REMARK INTRA:                  -0.312
REMARK UNBOUND:                -0.312
REMARK SMILES Cc1ccc(NC(=O)c2ccc(CN3CCN(C)CC3)cc2)cc1Nc1nc(-c2cccnc2)cs1
REMARK SMILES IDX 6 1 7 2 8 3 5 5 2 6 3 7 24 8 4 9 23 10 1 11 25 12 26 14
REMARK SMILES IDX 27 15 36 16 28 17 35 18 29 19 30 20 34 21 31 22 33 23 32 24
REMARK SMILES IDX 9 25 10 26 22 27 11 28 21 29 12 30 13 31 14 32 15 33 20 34
REMARK SMILES IDX 16 35 19 36 17 37 18 38
REMARK H PARENT 6 4 25 13
ROOT
ATOM      1  N   UNL     1      24.278  26.064  40.092  1.00  0.00    -0.322 N 
ATOM      2  C   UNL     1      24.916  25.252  39.172  1.00  0.00     0.255 C 
ATOM      3  O   UNL     1      25.677  24.323  39.413  1.00  0.00    -0.269 OA
ATOM      4  H   UNL     1      23.569  26.688  39.732  1.00  0.00     0.170 HD
ENDROOT
BRANCH   1   5
ATOM      5  C   UNL     1      24.410  26.034  41.497  1.00  0.00     0.043 A 
ATOM      6  C   UNL     1      24.510  26.045  44.319  1.00  0.00    -0.027 A 
ATOM      7  C   UNL     1      23.488  26.719  43.638  1.00  0.00     0.008 A 
ATOM      8  C   UNL     1      25.508  25.386  43.578  1.00  0.00     0.045 A 
ATOM      9  C   UNL     1      23.439  26.710  42.242  1.00  0.00     0.026 A 
ATOM     10  C   UNL     1      25.445  25.385  42.172  1.00  0.00     0.052 A 
ATOM     11  C   UNL     1      24.531  26.072  45.823  1.00  0.00     0.046 C 
BRANCH   8  12
ATOM     12  N   UNL     1      26.582  24.733  44.229  1.00  0.00    -0.331 N 
ATOM     13  H   UNL     1      26.772  23.833  43.795  1.00  0.00     0.169 HD
BRANCH  12  14
ATOM     14  C   UNL     1      27.745  25.356  44.561  1.00  0.00     0.187 A 
ATOM     15  N   UNL     1      28.632  24.774  45.340  1.00  0.00    -0.220 NA
ATOM     16  S   UNL     1      28.195  26.945  44.053  1.00  0.00    -0.105 S 
ATOM     17  C   UNL     1      29.728  25.594  45.568  1.00  0.00     0.085 A 
ATOM     18  C   UNL     1      29.659  26.817  44.932  1.00  0.00     0.097 A 
BRANCH  17  19
ATOM     19  C   UNL     1      30.827  25.149  46.419  1.00  0.00     0.019 A 
ATOM     20  C   UNL     1      31.945  25.938  46.711  1.00  0.00     0.013 A 
ATOM     21  C   UNL     1      30.789  23.881  46.998  1.00  0.00     0.121 A 
ATOM     22  C   UNL     1      32.951  25.442  47.544  1.00  0.00     0.021 A 
ATOM     23  N   UNL     1      31.751  23.373  47.811  1.00  0.00    -0.264 NA
ATOM     24  C   UNL     1      32.810  24.168  48.064  1.00  0.00     0.111 A 
ENDBRANCH  17  19
ENDBRANCH  12  14
ENDBRANCH   8  12
ENDBRANCH   1   5
BRANCH   2  25
ATOM     25  C   UNL     1      24.574  25.540  37.751  1.00  0.00     0.040 A 
ATOM     26  C   UNL     1      23.420  26.281  37.478  1.00  0.00     0.014 A 
ATOM     27  C   UNL     1      25.370  25.077  36.696  1.00  0.00     0.014 A 
ATOM     28  C   UNL     1      23.081  26.585  36.159  1.00  0.00     0.006 A 
ATOM     29  C   UNL     1      25.025  25.380  35.375  1.00  0.00     0.006 A 
ATOM     30  C   UNL     1      23.885  26.148  35.095  1.00  0.00    -0.034 A 
BRANCH  30  31
ATOM     31  C   UNL     1      23.503  26.465  33.660  1.00  0.00     0.120 C 
BRANCH  31  32
ATOM     32  N   UNL     1      23.856  27.843  33.270  1.00  0.00    -0.297 NA
ATOM     33  C   UNL     1      22.897  28.804  33.846  1.00  0.00     0.100 C 
ATOM     34  C   UNL     1      23.883  28.003  31.795  1.00  0.00     0.100 C 
ATOM     35  C   UNL     1      21.460  28.753  33.259  1.00  0.00     0.099 C 
ATOM     36  C   UNL     1      22.600  28.581  31.139  1.00  0.00     0.099 C 
ATOM     37  N   UNL     1      21.385  28.226  31.883  1.00  0.00    -0.304 NA
ATOM     38  C   UNL     1      20.178  28.684  31.204  1.00  0.00     0.105 C 
ENDBRANCH  31  32
ENDBRANCH  30  31
ENDBRANCH   2  25
TORSDOF 7
ENDMDL
MODEL 2
REMARK VINA RESULT:   -11.948      2.846     12.740
REMARK INTER + INTRA:         -17.149
REMARK INTER:                 -16.441
REMARK INTRA:                  -0.709
REMARK UNBOUND:                -0.312
REMARK SMILES Cc1ccc(NC(=O)c2ccc(CN3CCN(C)CC3)cc2)cc1Nc1nc(-c2cccnc2)cs1
REMARK SMILES IDX 6 1 7 2 8 3 5 5 2 6 3 7 24 8 4 9 23 10 1 11 25 12 26 14
REMARK SMILES IDX 27 15 36 16 28 17 35 18 29 19 30 20 34 21 31 22 33 23 32 24
REMARK SMILES IDX 9 25 10 26 22 27 11 28 21 29 12 30 13 31 14 32 15 33 20 34
REMARK SMILES IDX 16 35 19 36 17 37 18 38
REMARK H PARENT 6 4 25 13
ROOT
ATOM      1  N   UNL     1      28.099  26.368  44.718  1.00  0.00    -0.322 N 
ATOM      2  C   UNL     1      28.715  25.259  45.271  1.00  0.00     0.255 C 
ATOM      3  O   UNL     1      28.310  24.104  45.248  1.00  0.00    -0.269 OA
ATOM      4  H   UNL     1      28.638  27.222  44.697  1.00  0.00     0.170 HD
ENDROOT
BRANCH   1   5
ATOM      5  C   UNL     1      26.850  26.414  44.064  1.00  0.00     0.043 A 
ATOM      6  C   UNL     1      24.270  26.507  42.917  1.00  0.00    -0.027 A 
ATOM      7  C   UNL     1      24.435  26.262  44.286  1.00  0.00     0.008 A 
ATOM      8  C   UNL     1      25.411  26.675  42.110  1.00  0.00     0.045 A 
ATOM      9  C   UNL     1      25.711  26.218  44.852  1.00  0.00     0.026 A 
ATOM     10  C   UNL     1      26.690  26.630  42.694  1.00  0.00     0.052 A 
ATOM     11  C   UNL     1      22.882  26.549  42.340  1.00  0.00     0.046 C 
BRANCH   8  12
ATOM     12  N   UNL     1      25.288  26.879  40.715  1.00  0.00    -0.331 N 
ATOM     13  H   UNL     1      25.887  27.641  40.408  1.00  0.00     0.169 HD
BRANCH  12  14
ATOM     14  C   UNL     1      25.304  25.865  39.807  1.00  0.00     0.187 A 
ATOM     15  N   UNL     1      25.321  26.108  38.514  1.00  0.00    -0.220 NA
ATOM     16  S   UNL     1      25.279  24.183  40.203  1.00  0.00    -0.105 S 
ATOM     17  C   UNL     1      25.310  24.935  37.773  1.00  0.00     0.085 A 
ATOM     18  C   UNL     1      25.298  23.785  38.537  1.00  0.00     0.097 A 
BRANCH  17  19
ATOM     19  C   UNL     1      25.311  24.975  36.314  1.00  0.00     0.019 A 
ATOM     20  C   UNL     1      26.219  24.263  35.523  1.00  0.00     0.013 A 
ATOM     21  C   UNL     1      24.365  25.745  35.639  1.00  0.00     0.121 A 
ATOM     22  C   UNL     1      26.147  24.346  34.130  1.00  0.00     0.021 A 
ATOM     23  N   UNL     1      24.271  25.846  34.287  1.00  0.00    -0.264 NA
ATOM     24  C   UNL     1      25.166  25.142  33.566  1.00  0.00     0.111 A 
ENDBRANCH  17  19
ENDBRANCH  12  14
ENDBRANCH   8  12
ENDBRANCH   1   5
BRANCH   2  25
ATOM     25  C   UNL     1      30.033  25.538  45.906  1.00  0.00     0.040 A 
ATOM     26  C   UNL     1      30.480  26.861  45.967  1.00  0.00     0.014 A 
ATOM     27  C   UNL     1      30.831  24.509  46.425  1.00  0.00     0.014 A 
ATOM     28  C   UNL     1      31.702  27.159  46.574  1.00  0.00     0.006 A 
ATOM     29  C   UNL     1      32.056  24.811  47.027  1.00  0.00     0.006 A 
ATOM     30  C   UNL     1      32.497  26.140  47.119  1.00  0.00    -0.034 A 
BRANCH  30  31
ATOM     31  C   UNL     1      33.833  26.465  47.762  1.00  0.00     0.120 C 
BRANCH  31  32
ATOM     32  N   UNL     1      34.931  26.547  46.780  1.00  0.00    -0.297 NA
ATOM     33  C   UNL     1      36.235  26.393  47.452  1.00  0.00     0.100 C 
ATOM     34  C   UNL     1      34.908  27.832  46.041  1.00  0.00     0.100 C 
ATOM     35  C   UNL     1      36.657  27.569  48.376  1.00  0.00     0.099 C 
ATOM     36  C   UNL     1      35.846  28.951  46.571  1.00  0.00     0.099 C 
ATOM     37  N   UNL     1      36.049  28.866  48.023  1.00  0.00    -0.304 NA
ATOM     38  C   UNL     1      36.846  29.980  48.527  1.00  0.00     0.105 C 
ENDBRANCH  31  32
ENDBRANCH  30  31
ENDBRANCH   2  25
TORSDOF 7
ENDMDL
MODEL 3
REMARK VINA RESULT:   -10.606      4.965     10.276
REMARK INTER + INTRA:         -15.258
REMARK INTER:                 -15.132
REMARK INTRA:                  -0.126
REMARK UNBOUND:                -0.312
REMARK SMILES Cc1ccc(NC(=O)c2ccc(CN3CCN(C)CC3)cc2)cc1Nc1nc(-c2cccnc2)cs1
REMARK SMILES IDX 6 1 7 2 8 3 5 5 2 6 3 7 24 8 4 9 23 10 1 11 25 12 26 14
REMARK SMILES IDX 27 15 36 16 28 17 35 18 29 19 30 20 34 21 31 22 33 23 32 24
REMARK SMILES IDX 9 25 10 26 22 27 11 28 21 29 12 30 13 31 14 32 15 33 20 34
REMARK SMILES IDX 16 35 19 36 17 37 18 38
REMARK H PARENT 6 4 25 13
ROOT
ATOM      1  N   UNL     1      32.164  26.047  46.932  1.00  0.00    -0.322 N 
ATOM      2  C   UNL     1      31.345  25.051  46.432  1.00  0.00     0.255 C 
ATOM      3  O   UNL     1      31.488  23.842  46.568  1.00  0.00    -0.269 OA
ATOM      4  H   UNL     1      31.823  26.995  46.855  1.00  0.00     0.170 HD
ENDROOT
BRANCH   1   5
ATOM      5  C   UNL     1      33.366  25.884  47.653  1.00  0.00     0.043 A 
ATOM      6  C   UNL     1      35.708  25.398  49.156  1.00  0.00    -0.027 A 
ATOM      7  C   UNL     1      34.575  24.590  49.317  1.00  0.00     0.008 A 
ATOM      8  C   UNL     1      35.655  26.478  48.256  1.00  0.00     0.045 A 
ATOM      9  C   UNL     1      33.418  24.830  48.572  1.00  0.00     0.026 A 
ATOM     10  C   UNL     1      34.483  26.707  47.511  1.00  0.00     0.052 A 
ATOM     11  C   UNL     1      36.937  25.110  49.972  1.00  0.00     0.046 C 
BRANCH   8  12
ATOM     12  N   UNL     1      36.763  27.345  48.098  1.00  0.00    -0.331 N 
ATOM     13  H   UNL     1      37.503  26.890  47.569  1.00  0.00     0.169 HD
BRANCH  12  14
ATOM     14  C   UNL     1      36.644  28.649  47.727  1.00  0.00     0.187 A 
ATOM     15  N   UNL     1      36.529  28.990  46.461  1.00  0.00    -0.220 NA
ATOM     16  S   UNL     1      36.654  29.991  48.815  1.00  0.00    -0.105 S 
ATOM     17  C   UNL     1      36.446  30.366  46.308  1.00  0.00     0.085 A 
ATOM     18  C   UNL     1      36.489  31.069  47.495  1.00  0.00     0.097 A 
BRANCH  17  19
ATOM     19  C   UNL     1      36.328  30.962  44.981  1.00  0.00     0.019 A 
ATOM     20  C   UNL     1      35.431  30.509  44.009  1.00  0.00     0.013 A 
ATOM     21  C   UNL     1      37.129  32.050  44.633  1.00  0.00     0.121 A 
ATOM     22  C   UNL     1      35.370  31.141  42.764  1.00  0.00     0.021 A 
ATOM     23  N   UNL     1      37.093  32.684  43.432  1.00  0.00    -0.264 NA
ATOM     24  C   UNL     1      36.213  32.213  42.526  1.00  0.00     0.111 A 
ENDBRANCH  17  19
ENDBRANCH  12  14
ENDBRANCH   8  12
ENDBRANCH   1   5
BRANCH   2  25
ATOM     25  C   UNL     1      30.145  25.546  45.701  1.00  0.00     0.040 A 
ATOM     26  C   UNL     1      28.959  24.811  45.786  1.00  0.00     0.014 A 
ATOM     27  C   UNL     1      30.187  26.713  44.927  1.00  0.00     0.014 A 
ATOM     28  C   UNL     1      27.812  25.258  45.129  1.00  0.00     0.006 A 
ATOM     29  C   UNL     1      29.037  27.156  44.267  1.00  0.00     0.006 A 
ATOM     30  C   UNL     1      27.835  26.440  44.372  1.00  0.00    -0.034 A 
BRANCH  30  31
ATOM     31  C   UNL     1      26.590  26.913  43.644  1.00  0.00     0.120 C 
BRANCH  31  32
ATOM     32  N   UNL     1      25.527  25.891  43.612  1.00  0.00    -0.297 NA
ATOM     33  C   UNL     1      25.933  24.752  42.768  1.00  0.00     0.100 C 
ATOM     34  C   UNL     1      24.250  26.448  43.103  1.00  0.00     0.100 C 
ATOM     35  C   UNL     1      26.026  25.044  41.245  1.00  0.00     0.099 C 
ATOM     36  C   UNL     1      23.949  26.221  41.595  1.00  0.00     0.099 C 
ATOM     37  N   UNL     1      25.173  26.157  40.787  1.00  0.00    -0.304 NA
ATOM     38  C   UNL     1      24.878  26.048  39.362  1.00  0.00     0.105 C 
ENDBRANCH  31  32
ENDBRANCH  30  31
ENDBRANCH   2  25
TORSDOF 7
ENDMDL
MODEL 4
REMARK VINA RESULT:   -10.351      6.126     13.141
REMARK INTER + INTRA:         -14.899
REMARK INTER:                 -15.029
REMARK INTRA:                   0.130
REMARK UNBOUND:                -0.312
REMARK SMILES Cc1ccc(NC(=O)c2ccc(CN3CCN(C)CC3)cc2)cc1Nc1nc(-c2cccnc2)cs1
REMARK SMILES IDX 6 1 7 2 8 3 5 5 2 6 3 7 24 8 4 9 23 10 1 11 25 12 26 14
REMARK SMILES IDX 27 15 36 16 28 17 35 18 29 19 30 20 34 21 31 22 33 23 32 24
REMARK SMILES IDX 9 25 10 26 22 27 11 28 21 29 12 30 13 31 14 32 15 33 20 34
REMARK SMILES IDX 16 35 19 36 17 37 18 38
REMARK H PARENT 6 4 25 13
ROOT
ATOM      1  N   UNL     1      33.453  27.561  46.440  1.00  0.00    -0.322 N 
ATOM      2  C   UNL     1      34.824  27.569  46.621  1.00  0.00     0.255 C 
ATOM      3  O   UNL     1      35.543  26.604  46.852  1.00  0.00    -0.269 OA
ATOM      4  H   UNL     1      33.034  28.419  46.111  1.00  0.00     0.170 HD
ENDROOT
BRANCH   1   5
ATOM      5  C   UNL     1      32.584  26.454  46.540  1.00  0.00     0.043 A 
ATOM      6  C   UNL     1      30.983  24.142  46.807  1.00  0.00    -0.027 A 
ATOM      7  C   UNL     1      32.373  24.070  46.964  1.00  0.00     0.008 A 
ATOM      8  C   UNL     1      30.394  25.378  46.482  1.00  0.00     0.045 A 
ATOM      9  C   UNL     1      33.163  25.215  46.833  1.00  0.00     0.026 A 
ATOM     10  C   UNL     1      31.203  26.523  46.355  1.00  0.00     0.052 A 
ATOM     11  C   UNL     1      30.162  22.890  46.956  1.00  0.00     0.046 C 
BRANCH   8  12
ATOM     12  N   UNL     1      28.999  25.482  46.270  1.00  0.00    -0.331 N 
ATOM     13  H   UNL     1      28.549  25.944  47.056  1.00  0.00     0.169 HD
BRANCH  12  14
ATOM     14  C   UNL     1      28.450  25.896  45.096  1.00  0.00     0.187 A 
ATOM     15  N   UNL     1      27.147  25.876  44.908  1.00  0.00    -0.220 NA
ATOM     16  S   UNL     1      29.345  26.460  43.730  1.00  0.00    -0.105 S 
ATOM     17  C   UNL     1      26.808  26.316  43.636  1.00  0.00     0.085 A 
ATOM     18  C   UNL     1      27.888  26.686  42.860  1.00  0.00     0.097 A 
BRANCH  17  19
ATOM     19  C   UNL     1      25.413  26.360  43.211  1.00  0.00     0.019 A 
ATOM     20  C   UNL     1      25.012  26.318  41.872  1.00  0.00     0.013 A 
ATOM     21  C   UNL     1      24.397  26.437  44.164  1.00  0.00     0.121 A 
ATOM     22  C   UNL     1      23.654  26.354  41.546  1.00  0.00     0.021 A 
ATOM     23  N   UNL     1      23.069  26.475  43.878  1.00  0.00    -0.264 NA
ATOM     24  C   UNL     1      22.731  26.432  42.574  1.00  0.00     0.111 A 
ENDBRANCH  17  19
ENDBRANCH  12  14
ENDBRANCH   8  12
ENDBRANCH   1   5
BRANCH   2  25
ATOM     25  C   UNL     1      35.461  28.906  46.458  1.00  0.00     0.040 A 
ATOM     26  C   UNL     1      35.322  29.568  45.234  1.00  0.00     0.014 A 
ATOM     27  C   UNL     1      36.200  29.497  47.490  1.00  0.00     0.014 A 
ATOM     28  C   UNL     1      35.890  30.830  45.055  1.00  0.00     0.006 A 
ATOM     29  C   UNL     1      36.771  30.760  47.305  1.00  0.00     0.006 A 
ATOM     30  C   UNL     1      36.611  31.444  46.091  1.00  0.00    -0.034 A 
BRANCH  30  31
ATOM     31  C   UNL     1      37.242  32.810  45.886  1.00  0.00     0.120 C 
BRANCH  31  32
ATOM     32  N   UNL     1      36.475  33.893  46.530  1.00  0.00    -0.297 NA
ATOM     33  C   UNL     1      35.122  33.981  45.951  1.00  0.00     0.100 C 
ATOM     34  C   UNL     1      37.156  35.203  46.387  1.00  0.00     0.100 C 
ATOM     35  C   UNL     1      35.051  34.483  44.482  1.00  0.00     0.099 C 
ATOM     36  C   UNL     1      36.674  36.109  45.221  1.00  0.00     0.099 C 
ATOM     37  N   UNL     1      36.188  35.331  44.075  1.00  0.00    -0.304 NA
ATOM     38  C   UNL     1      35.835  36.186  42.947  1.00  0.00     0.105 C 
ENDBRANCH  31  32
ENDBRANCH  30  31
ENDBRANCH   2  25
TORSDOF 7
ENDMDL
MODEL 5
REMARK VINA RESULT:   -10.317      3.673     11.932
REMARK INTER + INTRA:         -14.851
REMARK INTER:                 -14.556
REMARK INTRA:                  -0.296
REMARK UNBOUND:                -0.312
REMARK SMILES Cc1ccc(NC(=O)c2ccc(CN3CCN(C)CC3)cc2)cc1Nc1nc(-c2cccnc2)cs1
REMARK SMILES IDX 6 1 7 2 8 3 5 5 2 6 3 7 24 8 4 9 23 10 1 11 25 12 26 14
REMARK SMILES IDX 27 15 36 16 28 17 35 18 29 19 30 20 34 21 31 22 33 23 32 24
REMARK SMILES IDX 9 25 10 26 22 27 11 28 21 29 12 30 13 31 14 32 15 33 20 34
REMARK SMILES IDX 16 35 19 36 17 37 18 38
REMARK H PARENT 6 4 25 13
ROOT
ATOM      1  N   UNL     1      23.632  26.202  35.106  1.00  0.00    -0.322 N 
ATOM      2  C   UNL     1      24.639  25.317  35.447  1.00  0.00     0.255 C 
ATOM      3  O   UNL     1      25.360  24.691  34.680  1.00  0.00    -0.269 OA
ATOM      4  H   UNL     1      23.233  26.746  35.859  1.00  0.00     0.170 HD
ENDROOT
BRANCH   1   5
ATOM      5  C   UNL     1      23.182  26.528  33.809  1.00  0.00     0.043 A 
ATOM      6  C   UNL     1      22.300  27.004  31.169  1.00  0.00    -0.027 A 
ATOM      7  C   UNL     1      22.856  25.769  31.524  1.00  0.00     0.008 A 
ATOM      8  C   UNL     1      22.215  28.020  32.139  1.00  0.00     0.045 A 
ATOM      9  C   UNL     1      23.290  25.534  32.831  1.00  0.00     0.026 A 
ATOM     10  C   UNL     1      22.655  27.769  33.451  1.00  0.00     0.052 A 
ATOM     11  C   UNL     1      21.840  27.222  29.754  1.00  0.00     0.046 C 
BRANCH   8  12
ATOM     12  N   UNL     1      21.701  29.297  31.807  1.00  0.00    -0.331 N 
ATOM     13  H   UNL     1      21.134  29.249  30.964  1.00  0.00     0.169 HD
BRANCH  12  14
ATOM     14  C   UNL     1      21.130  30.132  32.718  1.00  0.00     0.187 A 
ATOM     15  N   UNL     1      21.798  30.547  33.774  1.00  0.00    -0.220 NA
ATOM     16  S   UNL     1      19.509  30.724  32.638  1.00  0.00    -0.105 S 
ATOM     17  C   UNL     1      21.021  31.367  34.579  1.00  0.00     0.085 A 
ATOM     18  C   UNL     1      19.743  31.579  34.103  1.00  0.00     0.097 A 
BRANCH  17  19
ATOM     19  C   UNL     1      21.562  31.927  35.813  1.00  0.00     0.019 A 
ATOM     20  C   UNL     1      20.994  33.018  36.480  1.00  0.00     0.013 A 
ATOM     21  C   UNL     1      22.698  31.364  36.394  1.00  0.00     0.121 A 
ATOM     22  C   UNL     1      21.566  33.489  37.664  1.00  0.00     0.021 A 
ATOM     23  N   UNL     1      23.277  31.800  37.543  1.00  0.00    -0.264 NA
ATOM     24  C   UNL     1      22.695  32.853  38.150  1.00  0.00     0.111 A 
ENDBRANCH  17  19
ENDBRANCH  12  14
ENDBRANCH   8  12
ENDBRANCH   1   5
BRANCH   2  25
ATOM     25  C   UNL     1      24.872  25.180  36.912  1.00  0.00     0.040 A 
ATOM     26  C   UNL     1      24.351  26.156  37.766  1.00  0.00     0.014 A 
ATOM     27  C   UNL     1      25.606  24.111  37.442  1.00  0.00     0.014 A 
ATOM     28  C   UNL     1      24.534  26.048  39.146  1.00  0.00     0.006 A 
ATOM     29  C   UNL     1      25.791  24.008  38.824  1.00  0.00     0.006 A 
ATOM     30  C   UNL     1      25.246  24.968  39.690  1.00  0.00    -0.034 A 
BRANCH  30  31
ATOM     31  C   UNL     1      25.459  24.862  41.189  1.00  0.00     0.120 C 
BRANCH  31  32
ATOM     32  N   UNL     1      25.449  26.176  41.858  1.00  0.00    -0.297 NA
ATOM     33  C   UNL     1      26.808  26.748  41.892  1.00  0.00     0.100 C 
ATOM     34  C   UNL     1      24.923  26.081  43.242  1.00  0.00     0.100 C 
ATOM     35  C   UNL     1      27.821  26.019  42.817  1.00  0.00     0.099 C 
ATOM     36  C   UNL     1      25.979  25.968  44.376  1.00  0.00     0.099 C 
ATOM     37  N   UNL     1      27.200  25.282  43.935  1.00  0.00    -0.304 NA
ATOM     38  C   UNL     1      28.142  25.089  45.032  1.00  0.00     0.105 C 
ENDBRANCH  31  32
ENDBRANCH  30  31
ENDBRANCH   2  25
TORSDOF 7
ENDMDL
MODEL 6
REMARK VINA RESULT:   -10.167      3.826     12.461
REMARK INTER + INTRA:         -14.639
REMARK INTER:                 -13.916
REMARK INTRA:                  -0.723
REMARK UNBOUND:                -0.312
REMARK SMILES Cc1ccc(NC(=O)c2ccc(CN3CCN(C)CC3)cc2)cc1Nc1nc(-c2cccnc2)cs1
REMARK SMILES IDX 6 1 7 2 8 3 5 5 2 6 3 7 24 8 4 9 23 10 1 11 25 12 26 14
REMARK SMILES IDX 27 15 36 16 28 17 35 18 29 19 30 20 34 21 31 22 33 23 32 24
REMARK SMILES IDX 9 25 10 26 22 27 11 28 21 29 12 30 13 31 14 32 15 33 20 34
REMARK SMILES IDX 16 35 19 36 17 37 18 38
REMARK H PARENT 6 4 25 13
ROOT
ATOM      1  N   UNL     1      23.609  26.214  34.919  1.00  0.00    -0.322 N 
ATOM      2  C   UNL     1      24.609  25.320  35.256  1.00  0.00     0.255 C 
ATOM      3  O   UNL     1      25.320  24.685  34.487  1.00  0.00    -0.269 OA
ATOM      4  H   UNL     1      23.219  26.764  35.672  1.00  0.00     0.170 HD
ENDROOT
BRANCH   1   5
ATOM      5  C   UNL     1      23.155  26.541  33.624  1.00  0.00     0.043 A 
ATOM      6  C   UNL     1      22.242  27.016  30.994  1.00  0.00    -0.027 A 
ATOM      7  C   UNL     1      22.662  25.739  31.383  1.00  0.00     0.008 A 
ATOM      8  C   UNL     1      22.310  28.072  31.922  1.00  0.00     0.045 A 
ATOM      9  C   UNL     1      23.112  25.504  32.685  1.00  0.00     0.026 A 
ATOM     10  C   UNL     1      22.763  27.821  33.230  1.00  0.00     0.052 A 
ATOM     11  C   UNL     1      21.761  27.233  29.585  1.00  0.00     0.046 C 
BRANCH   8  12
ATOM     12  N   UNL     1      21.937  29.387  31.553  1.00  0.00    -0.331 N 
ATOM     13  H   UNL     1      20.928  29.457  31.442  1.00  0.00     0.169 HD
BRANCH  12  14
ATOM     14  C   UNL     1      22.429  30.501  32.160  1.00  0.00     0.187 A 
ATOM     15  N   UNL     1      23.595  31.006  31.815  1.00  0.00    -0.220 NA
ATOM     16  S   UNL     1      21.642  31.363  33.433  1.00  0.00    -0.105 S 
ATOM     17  C   UNL     1      23.912  32.122  32.576  1.00  0.00     0.085 A 
ATOM     18  C   UNL     1      22.950  32.466  33.503  1.00  0.00     0.097 A 
BRANCH  17  19
ATOM     19  C   UNL     1      25.172  32.831  32.368  1.00  0.00     0.019 A 
ATOM     20  C   UNL     1      26.389  32.418  32.919  1.00  0.00     0.013 A 
ATOM     21  C   UNL     1      25.202  33.978  31.576  1.00  0.00     0.121 A 
ATOM     22  C   UNL     1      27.554  33.145  32.665  1.00  0.00     0.021 A 
ATOM     23  N   UNL     1      26.318  34.706  31.312  1.00  0.00    -0.264 NA
ATOM     24  C   UNL     1      27.469  34.271  31.864  1.00  0.00     0.111 A 
ENDBRANCH  17  19
ENDBRANCH  12  14
ENDBRANCH   8  12
ENDBRANCH   1   5
BRANCH   2  25
ATOM     25  C   UNL     1      24.849  25.185  36.720  1.00  0.00     0.040 A 
ATOM     26  C   UNL     1      24.323  26.156  37.577  1.00  0.00     0.014 A 
ATOM     27  C   UNL     1      25.596  24.123  37.247  1.00  0.00     0.014 A 
ATOM     28  C   UNL     1      24.513  26.049  38.956  1.00  0.00     0.006 A 
ATOM     29  C   UNL     1      25.787  24.020  38.628  1.00  0.00     0.006 A 
ATOM     30  C   UNL     1      25.237  24.975  39.497  1.00  0.00    -0.034 A 
BRANCH  30  31
ATOM     31  C   UNL     1      25.457  24.871  40.995  1.00  0.00     0.120 C 
BRANCH  31  32
ATOM     32  N   UNL     1      25.396  26.181  41.670  1.00  0.00    -0.297 NA
ATOM     33  C   UNL     1      26.746  26.760  41.793  1.00  0.00     0.100 C 
ATOM     34  C   UNL     1      24.785  26.073  43.017  1.00  0.00     0.100 C 
ATOM     35  C   UNL     1      27.703  26.031  42.776  1.00  0.00     0.099 C 
ATOM     36  C   UNL     1      25.767  25.958  44.215  1.00  0.00     0.099 C 
ATOM     37  N   UNL     1      27.018  25.283  43.848  1.00  0.00    -0.304 NA
ATOM     38  C   UNL     1      27.890  25.088  45.001  1.00  0.00     0.105 C 
ENDBRANCH  31  32
ENDBRANCH  30  31
ENDBRANCH   2  25
TORSDOF 7
ENDMDL
