MODEL 1
REMARK VINA RESULT:    -8.862      0.000      0.000
REMARK INTER + INTRA:         -14.443
REMARK INTER:                 -13.266
REMARK INTRA:                  -1.177
REMARK UNBOUND:                -1.177
REMARK SMILES C[C@H]1N[C@@H](N[C@@H](O)N2CCC[C@H]2[C@@H](N)O)S[C@@H]1[C@H]1CCN[C@H](C(C)(C)C(F)(F)F)C1
REMARK SMILES IDX 5 1 4 3 2 4 17 5 3 6 16 7 1 8 18 10 19 11 30 12 20 13 22 14
REMARK SMILES IDX 21 15 23 17 24 18 25 19 26 20 27 21 28 22 29 23 6 24 7 25
REMARK SMILES IDX 8 27 12 28 9 29 11 30 10 31 13 32 15 33 14 35
REMARK H PARENT 5 2 3 9 21 16 7 26 15 34 14 36 14 37
ROOT
ATOM      1  N   UNL     1      -0.058 -10.176  13.761  1.00  0.00    -0.255 NA
ATOM      2  H   UNL     1       0.096 -11.033  13.209  1.00  0.00     0.129 HD
ENDROOT
BRANCH   1   3
ATOM      3  C   UNL     1      -1.027 -10.502  14.691  1.00  0.00     0.185 C 
ATOM      4  C   UNL     1      -2.925 -11.378  15.414  1.00  0.00     0.066 C 
ATOM      5  C   UNL     1      -2.455 -10.903  16.635  1.00  0.00     0.069 C 
ATOM      6  N   UNL     1      -2.104 -11.149  14.328  1.00  0.00    -0.290 NA
ATOM      7  S   UNL     1      -0.924 -10.105  16.369  1.00  0.00    -0.122 SA
ATOM      8  C   UNL     1      -4.205 -12.117  15.194  1.00  0.00     0.025 C 
ATOM      9  H   UNL     1      -1.832 -12.052  13.914  1.00  0.00     0.125 HD
BRANCH   5  10
ATOM     10  C   UNL     1      -2.972 -10.916  18.021  1.00  0.00     0.006 C 
ATOM     11  C   UNL     1      -4.120 -11.624  18.361  1.00  0.00     0.020 C 
ATOM     12  C   UNL     1      -2.287 -10.231  19.020  1.00  0.00     0.024 C 
ATOM     13  C   UNL     1      -4.560 -11.581  19.665  1.00  0.00     0.081 C 
ATOM     14  C   UNL     1      -2.804 -10.263  20.324  1.00  0.00     0.068 C 
ATOM     15  N   UNL     1      -3.933 -10.910  20.642  1.00  0.00    -0.313 NA
ATOM     16  H   UNL     1      -4.595 -10.212  21.010  1.00  0.00     0.122 HD
BRANCH  14  17
ATOM     17  C   UNL     1      -2.059  -9.580  21.497  1.00  0.00     0.076 C 
ATOM     18  C   UNL     1      -1.503  -8.209  21.081  1.00  0.00     0.022 C 
ATOM     19  C   UNL     1      -3.004  -9.413  22.700  1.00  0.00     0.022 C 
BRANCH  17  20
ATOM     20  C   UNL     1      -0.792 -10.497  21.966  1.00  0.00     0.395 C 
ATOM     21  F   UNL     1      -0.905 -11.733  21.482  1.00  0.00    -0.170 F 
ATOM     22  F   UNL     1       0.375 -10.021  21.550  1.00  0.00    -0.170 F 
ATOM     23  F   UNL     1      -0.711 -10.590  23.289  1.00  0.00    -0.170 F 
ENDBRANCH  17  20
ENDBRANCH  14  17
ENDBRANCH   5  10
ENDBRANCH   1   3
BRANCH   1  24
ATOM     24  C   UNL     1      -0.175  -9.139  12.824  1.00  0.00     0.261 C 
BRANCH  24  25
ATOM     25  O   UNL     1      -1.231  -8.900  12.258  1.00  0.00    -0.365 OA
ATOM     26  H   UNL     1      -1.894  -8.577  12.919  1.00  0.00     0.214 HD
ENDBRANCH  24  25
BRANCH  24  27
ATOM     27  N   UNL     1       0.956  -8.390  12.562  1.00  0.00    -0.259 NA
ATOM     28  C   UNL     1       1.369  -7.330  13.496  1.00  0.00     0.104 C 
ATOM     29  C   UNL     1       1.870  -8.515  11.415  1.00  0.00     0.089 C 
ATOM     30  C   UNL     1       2.696  -6.822  12.910  1.00  0.00     0.025 C 
ATOM     31  C   UNL     1       2.669  -7.232  11.456  1.00  0.00     0.017 C 
BRANCH  28  32
ATOM     32  C   UNL     1       0.338  -6.210  13.646  1.00  0.00     0.197 C 
BRANCH  32  33
ATOM     33  O   UNL     1      -0.356  -5.870  12.682  1.00  0.00    -0.377 OA
ATOM     34  H   UNL     1       0.207  -5.833  11.868  1.00  0.00     0.212 HD
ENDBRANCH  32  33
BRANCH  32  35
ATOM     35  N   UNL     1       0.292  -5.597  14.817  1.00  0.00    -0.305 NA
ATOM     36  H   UNL     1       1.085  -4.945  14.895  1.00  0.00     0.121 HD
ATOM     37  H   UNL     1      -0.592  -5.073  14.897  1.00  0.00     0.121 HD
ENDBRANCH  32  35
ENDBRANCH  28  32
ENDBRANCH  24  27
ENDBRANCH   1  24
TORSDOF 10
ENDMDL
MODEL 2
REMARK VINA RESULT:    -8.552      2.320      3.367
REMARK INTER + INTRA:         -13.980
REMARK INTER:                 -12.914
REMARK INTRA:                  -1.065
REMARK UNBOUND:                -1.177
REMARK SMILES C[C@H]1N[C@@H](N[C@@H](O)N2CCC[C@H]2[C@@H](N)O)S[C@@H]1[C@H]1CCN[C@H](C(C)(C)C(F)(F)F)C1
REMARK SMILES IDX 5 1 4 3 2 4 17 5 3 6 16 7 1 8 18 10 19 11 30 12 20 13 22 14
REMARK SMILES IDX 21 15 23 17 24 18 25 19 26 20 27 21 28 22 29 23 6 24 7 25
REMARK SMILES IDX 8 27 12 28 9 29 11 30 10 31 13 32 15 33 14 35
REMARK H PARENT 5 2 3 9 21 16 7 26 15 34 14 36 14 37
ROOT
ATOM      1  N   UNL     1       0.680  -8.112  12.234  1.00  0.00    -0.255 NA
ATOM      2  H   UNL     1       1.639  -7.812  12.462  1.00  0.00     0.129 HD
ENDROOT
BRANCH   1   3
ATOM      3  C   UNL     1       0.114  -8.492  13.437  1.00  0.00     0.185 C 
ATOM      4  C   UNL     1      -0.872  -9.863  14.866  1.00  0.00     0.066 C 
ATOM      5  C   UNL     1      -0.756  -8.761  15.706  1.00  0.00     0.069 C 
ATOM      6  N   UNL     1      -0.370  -9.698  13.590  1.00  0.00    -0.290 NA
ATOM      7  S   UNL     1      -0.008  -7.457  14.814  1.00  0.00    -0.122 SA
ATOM      8  C   UNL     1      -1.461 -11.187  15.232  1.00  0.00     0.025 C 
ATOM      9  H   UNL     1       0.379 -10.386  13.430  1.00  0.00     0.125 HD
BRANCH   5  10
ATOM     10  C   UNL     1      -1.136  -8.480  17.108  1.00  0.00     0.006 C 
ATOM     11  C   UNL     1      -0.930  -7.228  17.678  1.00  0.00     0.020 C 
ATOM     12  C   UNL     1      -1.740  -9.473  17.873  1.00  0.00     0.024 C 
ATOM     13  C   UNL     1      -1.289  -7.034  18.994  1.00  0.00     0.081 C 
ATOM     14  C   UNL     1      -2.088  -9.174  19.199  1.00  0.00     0.068 C 
ATOM     15  N   UNL     1      -1.850  -7.981  19.760  1.00  0.00    -0.313 NA
ATOM     16  H   UNL     1      -1.224  -8.137  20.563  1.00  0.00     0.122 HD
BRANCH  14  17
ATOM     17  C   UNL     1      -2.822 -10.208  20.086  1.00  0.00     0.076 C 
ATOM     18  C   UNL     1      -3.831  -9.521  21.021  1.00  0.00     0.022 C 
ATOM     19  C   UNL     1      -3.549 -11.241  19.208  1.00  0.00     0.022 C 
BRANCH  17  20
ATOM     20  C   UNL     1      -1.750 -11.002  21.026  1.00  0.00     0.395 C 
ATOM     21  F   UNL     1      -2.228 -11.144  22.262  1.00  0.00    -0.170 F 
ATOM     22  F   UNL     1      -1.468 -12.220  20.577  1.00  0.00    -0.170 F 
ATOM     23  F   UNL     1      -0.593 -10.356  21.115  1.00  0.00    -0.170 F 
ENDBRANCH  17  20
ENDBRANCH  14  17
ENDBRANCH   5  10
ENDBRANCH   1   3
BRANCH   1  24
ATOM     24  C   UNL     1       0.802  -8.949  11.115  1.00  0.00     0.261 C 
BRANCH  24  25
ATOM     25  O   UNL     1      -0.177  -9.350  10.503  1.00  0.00    -0.365 OA
ATOM     26  H   UNL     1      -0.202 -10.339  10.531  1.00  0.00     0.214 HD
ENDBRANCH  24  25
BRANCH  24  27
ATOM     27  N   UNL     1       2.078  -9.308  10.726  1.00  0.00    -0.259 NA
ATOM     28  C   UNL     1       3.102  -8.271  10.517  1.00  0.00     0.104 C 
ATOM     29  C   UNL     1       2.594 -10.665  10.487  1.00  0.00     0.089 C 
ATOM     30  C   UNL     1       4.375  -9.073  10.204  1.00  0.00     0.025 C 
ATOM     31  C   UNL     1       3.888 -10.425   9.739  1.00  0.00     0.017 C 
BRANCH  28  32
ATOM     32  C   UNL     1       2.752  -7.283   9.402  1.00  0.00     0.197 C 
BRANCH  32  33
ATOM     33  O   UNL     1       2.372  -7.695   8.303  1.00  0.00    -0.377 OA
ATOM     34  H   UNL     1       2.897  -8.496   8.052  1.00  0.00     0.212 HD
ENDBRANCH  32  33
BRANCH  32  35
ATOM     35  N   UNL     1       2.950  -6.001   9.662  1.00  0.00    -0.305 NA
ATOM     36  H   UNL     1       2.308  -5.432   9.092  1.00  0.00     0.121 HD
ATOM     37  H   UNL     1       2.774  -5.821  10.661  1.00  0.00     0.121 HD
ENDBRANCH  32  35
ENDBRANCH  28  32
ENDBRANCH  24  27
ENDBRANCH   1  24
TORSDOF 10
ENDMDL
MODEL 3
REMARK VINA RESULT:    -8.461      1.711      2.844
REMARK INTER + INTRA:         -13.843
REMARK INTER:                 -12.998
REMARK INTRA:                  -0.845
REMARK UNBOUND:                -1.177
REMARK SMILES C[C@H]1N[C@@H](N[C@@H](O)N2CCC[C@H]2[C@@H](N)O)S[C@@H]1[C@H]1CCN[C@H](C(C)(C)C(F)(F)F)C1
REMARK SMILES IDX 5 1 4 3 2 4 17 5 3 6 16 7 1 8 18 10 19 11 30 12 20 13 22 14
REMARK SMILES IDX 21 15 23 17 24 18 25 19 26 20 27 21 28 22 29 23 6 24 7 25
REMARK SMILES IDX 8 27 12 28 9 29 11 30 10 31 13 32 15 33 14 35
REMARK H PARENT 5 2 3 9 21 16 7 26 15 34 14 36 14 37
ROOT
ATOM      1  N   UNL     1       0.276  -8.664  13.284  1.00  0.00    -0.255 NA
ATOM      2  H   UNL     1      -0.333  -9.069  12.559  1.00  0.00     0.129 HD
ENDROOT
BRANCH   1   3
ATOM      3  C   UNL     1      -0.378  -8.880  14.482  1.00  0.00     0.185 C 
ATOM      4  C   UNL     1      -1.001  -8.431  16.557  1.00  0.00     0.066 C 
ATOM      5  C   UNL     1      -1.713  -9.616  16.394  1.00  0.00     0.069 C 
ATOM      6  N   UNL     1      -0.258  -8.026  15.467  1.00  0.00    -0.290 NA
ATOM      7  S   UNL     1      -1.386 -10.247  14.798  1.00  0.00    -0.122 SA
ATOM      8  C   UNL     1      -0.996  -7.573  17.780  1.00  0.00     0.025 C 
ATOM      9  H   UNL     1      -0.591  -7.103  15.155  1.00  0.00     0.125 HD
BRANCH   5  10
ATOM     10  C   UNL     1      -2.615 -10.412  17.256  1.00  0.00     0.006 C 
ATOM     11  C   UNL     1      -3.384 -11.448  16.738  1.00  0.00     0.020 C 
ATOM     12  C   UNL     1      -2.681 -10.145  18.620  1.00  0.00     0.024 C 
ATOM     13  C   UNL     1      -4.218 -12.140  17.589  1.00  0.00     0.081 C 
ATOM     14  C   UNL     1      -3.546 -10.918  19.409  1.00  0.00     0.068 C 
ATOM     15  N   UNL     1      -4.319 -11.888  18.902  1.00  0.00    -0.313 NA
ATOM     16  H   UNL     1      -5.299 -11.633  19.092  1.00  0.00     0.122 HD
BRANCH  14  17
ATOM     17  C   UNL     1      -3.622 -10.721  20.943  1.00  0.00     0.076 C 
ATOM     18  C   UNL     1      -4.107  -9.307  21.299  1.00  0.00     0.022 C 
ATOM     19  C   UNL     1      -4.566 -11.765  21.566  1.00  0.00     0.022 C 
BRANCH  17  20
ATOM     20  C   UNL     1      -2.143 -10.911  21.606  1.00  0.00     0.395 C 
ATOM     21  F   UNL     1      -1.487 -11.905  21.009  1.00  0.00    -0.170 F 
ATOM     22  F   UNL     1      -1.384  -9.826  21.501  1.00  0.00    -0.170 F 
ATOM     23  F   UNL     1      -2.213 -11.197  22.901  1.00  0.00    -0.170 F 
ENDBRANCH  17  20
ENDBRANCH  14  17
ENDBRANCH   5  10
ENDBRANCH   1   3
BRANCH   1  24
ATOM     24  C   UNL     1       0.651  -7.401  12.802  1.00  0.00     0.261 C 
BRANCH  24  25
ATOM     25  O   UNL     1      -0.023  -6.405  13.018  1.00  0.00    -0.365 OA
ATOM     26  H   UNL     1       0.239  -5.687  12.388  1.00  0.00     0.214 HD
ENDBRANCH  24  25
BRANCH  24  27
ATOM     27  N   UNL     1       1.819  -7.323  12.067  1.00  0.00    -0.259 NA
ATOM     28  C   UNL     1       1.775  -7.448  10.601  1.00  0.00     0.104 C 
ATOM     29  C   UNL     1       3.184  -7.110  12.573  1.00  0.00     0.089 C 
ATOM     30  C   UNL     1       3.230  -7.205  10.170  1.00  0.00     0.025 C 
ATOM     31  C   UNL     1       4.060  -7.490  11.400  1.00  0.00     0.017 C 
BRANCH  28  32
ATOM     32  C   UNL     1       1.247  -8.800  10.117  1.00  0.00     0.197 C 
BRANCH  32  33
ATOM     33  O   UNL     1       0.066  -9.107  10.299  1.00  0.00    -0.377 OA
ATOM     34  H   UNL     1      -0.517  -8.356  10.024  1.00  0.00     0.212 HD
ENDBRANCH  32  33
BRANCH  32  35
ATOM     35  N   UNL     1       2.130  -9.623   9.575  1.00  0.00    -0.305 NA
ATOM     36  H   UNL     1       1.646 -10.283   8.951  1.00  0.00     0.121 HD
ATOM     37  H   UNL     1       2.819  -9.080   9.035  1.00  0.00     0.121 HD
ENDBRANCH  32  35
ENDBRANCH  28  32
ENDBRANCH  24  27
ENDBRANCH   1  24
TORSDOF 10
ENDMDL
MODEL 4
REMARK VINA RESULT:    -8.387      1.078      1.923
REMARK INTER + INTRA:         -13.732
REMARK INTER:                 -12.603
REMARK INTRA:                  -1.129
REMARK UNBOUND:                -1.177
REMARK SMILES C[C@H]1N[C@@H](N[C@@H](O)N2CCC[C@H]2[C@@H](N)O)S[C@@H]1[C@H]1CCN[C@H](C(C)(C)C(F)(F)F)C1
REMARK SMILES IDX 5 1 4 3 2 4 17 5 3 6 16 7 1 8 18 10 19 11 30 12 20 13 22 14
REMARK SMILES IDX 21 15 23 17 24 18 25 19 26 20 27 21 28 22 29 23 6 24 7 25
REMARK SMILES IDX 8 27 12 28 9 29 11 30 10 31 13 32 15 33 14 35
REMARK H PARENT 5 2 3 9 21 16 7 26 15 34 14 36 14 37
ROOT
ATOM      1  N   UNL     1       0.020  -9.925  14.002  1.00  0.00    -0.255 NA
ATOM      2  H   UNL     1       0.308 -10.779  13.504  1.00  0.00     0.129 HD
ENDROOT
BRANCH   1   3
ATOM      3  C   UNL     1      -0.958 -10.326  14.892  1.00  0.00     0.185 C 
ATOM      4  C   UNL     1      -2.815 -11.342  15.537  1.00  0.00     0.066 C 
ATOM      5  C   UNL     1      -2.427 -10.845  16.777  1.00  0.00     0.069 C 
ATOM      6  N   UNL     1      -1.972 -11.046  14.485  1.00  0.00    -0.290 NA
ATOM      7  S   UNL     1      -0.948  -9.938  16.575  1.00  0.00    -0.122 SA
ATOM      8  C   UNL     1      -4.029 -12.169  15.264  1.00  0.00     0.025 C 
ATOM      9  H   UNL     1      -1.621 -11.924  14.076  1.00  0.00     0.125 HD
BRANCH   5  10
ATOM     10  C   UNL     1      -2.994 -10.906  18.143  1.00  0.00     0.006 C 
ATOM     11  C   UNL     1      -4.126 -11.662  18.425  1.00  0.00     0.020 C 
ATOM     12  C   UNL     1      -2.372 -10.218  19.180  1.00  0.00     0.024 C 
ATOM     13  C   UNL     1      -4.616 -11.663  19.712  1.00  0.00     0.081 C 
ATOM     14  C   UNL     1      -2.935 -10.296  20.463  1.00  0.00     0.068 C 
ATOM     15  N   UNL     1      -4.051 -10.990  20.725  1.00  0.00    -0.313 NA
ATOM     16  H   UNL     1      -4.751 -10.325  21.082  1.00  0.00     0.122 HD
BRANCH  14  17
ATOM     17  C   UNL     1      -2.260  -9.612  21.676  1.00  0.00     0.076 C 
ATOM     18  C   UNL     1      -1.934  -8.140  21.375  1.00  0.00     0.022 C 
ATOM     19  C   UNL     1      -3.175  -9.697  22.910  1.00  0.00     0.022 C 
BRANCH  17  20
ATOM     20  C   UNL     1      -0.854 -10.359  22.031  1.00  0.00     0.395 C 
ATOM     21  F   UNL     1       0.155  -9.798  21.365  1.00  0.00    -0.170 F 
ATOM     22  F   UNL     1      -0.547 -10.301  23.322  1.00  0.00    -0.170 F 
ATOM     23  F   UNL     1      -0.880 -11.647  21.708  1.00  0.00    -0.170 F 
ENDBRANCH  17  20
ENDBRANCH  14  17
ENDBRANCH   5  10
ENDBRANCH   1   3
BRANCH   1  24
ATOM     24  C   UNL     1      -0.164  -8.951  13.009  1.00  0.00     0.261 C 
BRANCH  24  25
ATOM     25  O   UNL     1      -1.105  -8.996  12.231  1.00  0.00    -0.365 OA
ATOM     26  H   UNL     1      -0.781  -9.266  11.335  1.00  0.00     0.214 HD
ENDBRANCH  24  25
BRANCH  24  27
ATOM     27  N   UNL     1       0.766  -7.931  12.940  1.00  0.00    -0.259 NA
ATOM     28  C   UNL     1       1.293  -7.503  11.634  1.00  0.00     0.104 C 
ATOM     29  C   UNL     1       1.331  -7.156  14.056  1.00  0.00     0.089 C 
ATOM     30  C   UNL     1       2.194  -6.307  11.978  1.00  0.00     0.025 C 
ATOM     31  C   UNL     1       2.533  -6.474  13.441  1.00  0.00     0.017 C 
BRANCH  28  32
ATOM     32  C   UNL     1       2.052  -8.604  10.890  1.00  0.00     0.197 C 
BRANCH  32  33
ATOM     33  O   UNL     1       3.268  -8.738  11.051  1.00  0.00    -0.377 OA
ATOM     34  H   UNL     1       3.489  -9.701  11.106  1.00  0.00     0.212 HD
ENDBRANCH  32  33
BRANCH  32  35
ATOM     35  N   UNL     1       1.354  -9.331  10.033  1.00  0.00    -0.305 NA
ATOM     36  H   UNL     1       0.847  -8.709   9.388  1.00  0.00     0.121 HD
ATOM     37  H   UNL     1       1.992  -9.936   9.496  1.00  0.00     0.121 HD
ENDBRANCH  32  35
ENDBRANCH  28  32
ENDBRANCH  24  27
ENDBRANCH   1  24
TORSDOF 10
ENDMDL
MODEL 5
REMARK VINA RESULT:    -8.357      1.328      2.335
REMARK INTER + INTRA:         -13.687
REMARK INTER:                 -12.258
REMARK INTRA:                  -1.430
REMARK UNBOUND:                -1.177
REMARK SMILES C[C@H]1N[C@@H](N[C@@H](O)N2CCC[C@H]2[C@@H](N)O)S[C@@H]1[C@H]1CCN[C@H](C(C)(C)C(F)(F)F)C1
REMARK SMILES IDX 5 1 4 3 2 4 17 5 3 6 16 7 1 8 18 10 19 11 30 12 20 13 22 14
REMARK SMILES IDX 21 15 23 17 24 18 25 19 26 20 27 21 28 22 29 23 6 24 7 25
REMARK SMILES IDX 8 27 12 28 9 29 11 30 10 31 13 32 15 33 14 35
REMARK H PARENT 5 2 3 9 21 16 7 26 15 34 14 36 14 37
ROOT
ATOM      1  N   UNL     1       0.539  -6.765  14.754  1.00  0.00    -0.255 NA
ATOM      2  H   UNL     1       1.522  -6.924  15.018  1.00  0.00     0.129 HD
ENDROOT
BRANCH   1   3
ATOM      3  C   UNL     1      -0.175  -7.786  15.351  1.00  0.00     0.185 C 
ATOM      4  C   UNL     1      -1.057  -9.808  15.524  1.00  0.00     0.066 C 
ATOM      5  C   UNL     1      -1.466  -9.314  16.758  1.00  0.00     0.069 C 
ATOM      6  N   UNL     1      -0.323  -8.936  14.745  1.00  0.00    -0.290 NA
ATOM      7  S   UNL     1      -0.919  -7.661  16.905  1.00  0.00    -0.122 SA
ATOM      8  C   UNL     1      -1.322 -11.181  14.997  1.00  0.00     0.025 C 
ATOM      9  H   UNL     1       0.605  -9.344  14.563  1.00  0.00     0.125 HD
BRANCH   5  10
ATOM     10  C   UNL     1      -2.244  -9.864  17.890  1.00  0.00     0.006 C 
ATOM     11  C   UNL     1      -3.340 -10.694  17.681  1.00  0.00     0.020 C 
ATOM     12  C   UNL     1      -1.864  -9.574  19.197  1.00  0.00     0.024 C 
ATOM     13  C   UNL     1      -4.035 -11.159  18.775  1.00  0.00     0.081 C 
ATOM     14  C   UNL     1      -2.623 -10.111  20.247  1.00  0.00     0.068 C 
ATOM     15  N   UNL     1      -3.704 -10.876  20.043  1.00  0.00    -0.313 NA
ATOM     16  H   UNL     1      -4.508 -10.394  20.471  1.00  0.00     0.122 HD
BRANCH  14  17
ATOM     17  C   UNL     1      -2.218  -9.886  21.724  1.00  0.00     0.076 C 
ATOM     18  C   UNL     1      -1.955  -8.398  22.008  1.00  0.00     0.022 C 
ATOM     19  C   UNL     1      -3.323 -10.405  22.662  1.00  0.00     0.022 C 
BRANCH  17  20
ATOM     20  C   UNL     1      -0.842 -10.697  22.059  1.00  0.00     0.395 C 
ATOM     21  F   UNL     1      -0.803 -11.847  21.389  1.00  0.00    -0.170 F 
ATOM     22  F   UNL     1       0.252 -10.019  21.733  1.00  0.00    -0.170 F 
ATOM     23  F   UNL     1      -0.736 -10.982  23.352  1.00  0.00    -0.170 F 
ENDBRANCH  17  20
ENDBRANCH  14  17
ENDBRANCH   5  10
ENDBRANCH   1   3
BRANCH   1  24
ATOM     24  C   UNL     1       0.554  -6.510  13.375  1.00  0.00     0.261 C 
BRANCH  24  25
ATOM     25  O   UNL     1      -0.394  -5.987  12.808  1.00  0.00    -0.365 OA
ATOM     26  H   UNL     1      -0.407  -6.269  11.858  1.00  0.00     0.214 HD
ENDBRANCH  24  25
BRANCH  24  27
ATOM     27  N   UNL     1       1.688  -6.872  12.674  1.00  0.00    -0.259 NA
ATOM     28  C   UNL     1       1.568  -7.423  11.314  1.00  0.00     0.104 C 
ATOM     29  C   UNL     1       3.088  -6.770  13.117  1.00  0.00     0.089 C 
ATOM     30  C   UNL     1       3.026  -7.593  10.858  1.00  0.00     0.025 C 
ATOM     31  C   UNL     1       3.836  -7.641  12.132  1.00  0.00     0.017 C 
BRANCH  28  32
ATOM     32  C   UNL     1       0.787  -8.737  11.253  1.00  0.00     0.197 C 
BRANCH  32  33
ATOM     33  O   UNL     1       0.765  -9.493  12.228  1.00  0.00    -0.377 OA
ATOM     34  H   UNL     1       1.304 -10.299  12.033  1.00  0.00     0.212 HD
ENDBRANCH  32  33
BRANCH  32  35
ATOM     35  N   UNL     1       0.216  -9.036  10.097  1.00  0.00    -0.305 NA
ATOM     36  H   UNL     1       0.072  -8.174   9.553  1.00  0.00     0.121 HD
ATOM     37  H   UNL     1       0.825  -9.678   9.569  1.00  0.00     0.121 HD
ENDBRANCH  32  35
ENDBRANCH  28  32
ENDBRANCH  24  27
ENDBRANCH   1  24
TORSDOF 10
ENDMDL
MODEL 6
REMARK VINA RESULT:    -8.278      2.563      3.719
REMARK INTER + INTRA:         -13.569
REMARK INTER:                 -13.193
REMARK INTRA:                  -0.376
REMARK UNBOUND:                -1.177
REMARK SMILES C[C@H]1N[C@@H](N[C@@H](O)N2CCC[C@H]2[C@@H](N)O)S[C@@H]1[C@H]1CCN[C@H](C(C)(C)C(F)(F)F)C1
REMARK SMILES IDX 5 1 4 3 2 4 17 5 3 6 16 7 1 8 18 10 19 11 30 12 20 13 22 14
REMARK SMILES IDX 21 15 23 17 24 18 25 19 26 20 27 21 28 22 29 23 6 24 7 25
REMARK SMILES IDX 8 27 12 28 9 29 11 30 10 31 13 32 15 33 14 35
REMARK H PARENT 5 2 3 9 21 16 7 26 15 34 14 36 14 37
ROOT
ATOM      1  N   UNL     1       0.685  -7.968  12.110  1.00  0.00    -0.255 NA
ATOM      2  H   UNL     1       1.600  -7.533  12.298  1.00  0.00     0.129 HD
ENDROOT
BRANCH   1   3
ATOM      3  C   UNL     1       0.193  -8.348  13.345  1.00  0.00     0.185 C 
ATOM      4  C   UNL     1      -0.244  -8.133  15.503  1.00  0.00     0.066 C 
ATOM      5  C   UNL     1      -0.837  -9.377  15.309  1.00  0.00     0.069 C 
ATOM      6  N   UNL     1       0.327  -7.563  14.383  1.00  0.00    -0.290 NA
ATOM      7  S   UNL     1      -0.621  -9.843  13.639  1.00  0.00    -0.122 SA
ATOM      8  C   UNL     1      -0.198  -7.375  16.789  1.00  0.00     0.025 C 
ATOM      9  H   UNL     1      -0.136  -6.664  14.188  1.00  0.00     0.125 HD
BRANCH   5  10
ATOM     10  C   UNL     1      -1.548 -10.335  16.184  1.00  0.00     0.006 C 
ATOM     11  C   UNL     1      -1.893 -11.606  15.737  1.00  0.00     0.020 C 
ATOM     12  C   UNL     1      -1.859  -9.978  17.493  1.00  0.00     0.024 C 
ATOM     13  C   UNL     1      -2.571 -12.445  16.594  1.00  0.00     0.081 C 
ATOM     14  C   UNL     1      -2.533 -10.909  18.295  1.00  0.00     0.068 C 
ATOM     15  N   UNL     1      -2.903 -12.118  17.851  1.00  0.00    -0.313 NA
ATOM     16  H   UNL     1      -3.929 -12.172  17.922  1.00  0.00     0.122 HD
BRANCH  14  17
ATOM     17  C   UNL     1      -2.850 -10.606  19.780  1.00  0.00     0.076 C 
ATOM     18  C   UNL     1      -1.873 -11.333  20.718  1.00  0.00     0.022 C 
ATOM     19  C   UNL     1      -2.785  -9.090  20.038  1.00  0.00     0.022 C 
BRANCH  17  20
ATOM     20  C   UNL     1      -4.354 -11.121  20.150  1.00  0.00     0.395 C 
ATOM     21  F   UNL     1      -5.057 -10.143  20.719  1.00  0.00    -0.170 F 
ATOM     22  F   UNL     1      -5.040 -11.525  19.087  1.00  0.00    -0.170 F 
ATOM     23  F   UNL     1      -4.334 -12.146  20.995  1.00  0.00    -0.170 F 
ENDBRANCH  17  20
ENDBRANCH  14  17
ENDBRANCH   5  10
ENDBRANCH   1   3
BRANCH   1  24
ATOM     24  C   UNL     1       0.897  -8.845  11.036  1.00  0.00     0.261 C 
BRANCH  24  25
ATOM     25  O   UNL     1      -0.029  -9.263  10.356  1.00  0.00    -0.365 OA
ATOM     26  H   UNL     1      -0.888  -9.012  10.779  1.00  0.00     0.214 HD
ENDBRANCH  24  25
BRANCH  24  27
ATOM     27  N   UNL     1       2.199  -9.224  10.773  1.00  0.00    -0.259 NA
ATOM     28  C   UNL     1       3.286  -8.235  10.871  1.00  0.00     0.104 C 
ATOM     29  C   UNL     1       2.686 -10.560  10.395  1.00  0.00     0.089 C 
ATOM     30  C   UNL     1       4.555  -9.062  10.611  1.00  0.00     0.025 C 
ATOM     31  C   UNL     1       4.083 -10.295   9.877  1.00  0.00     0.017 C 
BRANCH  28  32
ATOM     32  C   UNL     1       3.144  -7.071   9.888  1.00  0.00     0.197 C 
BRANCH  32  33
ATOM     33  O   UNL     1       3.517  -7.195   8.718  1.00  0.00    -0.377 OA
ATOM     34  H   UNL     1       3.543  -6.306   8.285  1.00  0.00     0.212 HD
ENDBRANCH  32  33
BRANCH  32  35
ATOM     35  N   UNL     1       2.678  -5.933  10.379  1.00  0.00    -0.305 NA
ATOM     36  H   UNL     1       2.297  -6.097  11.321  1.00  0.00     0.121 HD
ATOM     37  H   UNL     1       3.442  -5.244  10.433  1.00  0.00     0.121 HD
ENDBRANCH  32  35
ENDBRANCH  28  32
ENDBRANCH  24  27
ENDBRANCH   1  24
TORSDOF 10
ENDMDL
MODEL 7
REMARK VINA RESULT:    -8.023      2.180      3.414
REMARK INTER + INTRA:         -13.188
REMARK INTER:                 -11.976
REMARK INTRA:                  -1.211
REMARK UNBOUND:                -1.177
REMARK SMILES C[C@H]1N[C@@H](N[C@@H](O)N2CCC[C@H]2[C@@H](N)O)S[C@@H]1[C@H]1CCN[C@H](C(C)(C)C(F)(F)F)C1
REMARK SMILES IDX 5 1 4 3 2 4 17 5 3 6 16 7 1 8 18 10 19 11 30 12 20 13 22 14
REMARK SMILES IDX 21 15 23 17 24 18 25 19 26 20 27 21 28 22 29 23 6 24 7 25
REMARK SMILES IDX 8 27 12 28 9 29 11 30 10 31 13 32 15 33 14 35
REMARK H PARENT 5 2 3 9 21 16 7 26 15 34 14 36 14 37
ROOT
ATOM      1  N   UNL     1       1.086  -7.107  14.701  1.00  0.00    -0.255 NA
ATOM      2  H   UNL     1       1.776  -7.872  14.691  1.00  0.00     0.129 HD
ENDROOT
BRANCH   1   3
ATOM      3  C   UNL     1       0.071  -7.533  15.536  1.00  0.00     0.185 C 
ATOM      4  C   UNL     1      -1.581  -7.308  16.990  1.00  0.00     0.066 C 
ATOM      5  C   UNL     1      -1.639  -8.691  16.846  1.00  0.00     0.069 C 
ATOM      6  N   UNL     1      -0.616  -6.669  16.239  1.00  0.00    -0.290 NA
ATOM      7  S   UNL     1      -0.385  -9.187  15.735  1.00  0.00    -0.122 SA
ATOM      8  C   UNL     1      -2.475  -6.479  17.855  1.00  0.00     0.025 C 
ATOM      9  H   UNL     1      -1.071  -6.000  15.602  1.00  0.00     0.125 HD
BRANCH   5  10
ATOM     10  C   UNL     1      -2.480  -9.761  17.427  1.00  0.00     0.006 C 
ATOM     11  C   UNL     1      -3.143 -10.680  16.621  1.00  0.00     0.020 C 
ATOM     12  C   UNL     1      -2.594  -9.877  18.809  1.00  0.00     0.024 C 
ATOM     13  C   UNL     1      -3.925 -11.641  17.222  1.00  0.00     0.081 C 
ATOM     14  C   UNL     1      -3.398 -10.902  19.327  1.00  0.00     0.068 C 
ATOM     15  N   UNL     1      -4.071 -11.761  18.549  1.00  0.00    -0.313 NA
ATOM     16  H   UNL     1      -5.073 -11.648  18.760  1.00  0.00     0.122 HD
BRANCH  14  17
ATOM     17  C   UNL     1      -3.518 -11.132  20.854  1.00  0.00     0.076 C 
ATOM     18  C   UNL     1      -4.432 -12.328  21.166  1.00  0.00     0.022 C 
ATOM     19  C   UNL     1      -2.126 -11.371  21.465  1.00  0.00     0.022 C 
BRANCH  17  20
ATOM     20  C   UNL     1      -4.171  -9.820  21.570  1.00  0.00     0.395 C 
ATOM     21  F   UNL     1      -5.248  -9.410  20.902  1.00  0.00    -0.170 F 
ATOM     22  F   UNL     1      -4.553 -10.048  22.821  1.00  0.00    -0.170 F 
ATOM     23  F   UNL     1      -3.318  -8.803  21.616  1.00  0.00    -0.170 F 
ENDBRANCH  17  20
ENDBRANCH  14  17
ENDBRANCH   5  10
ENDBRANCH   1   3
BRANCH   1  24
ATOM     24  C   UNL     1       0.908  -6.742  13.358  1.00  0.00     0.261 C 
BRANCH  24  25
ATOM     25  O   UNL     1      -0.057  -6.087  12.993  1.00  0.00    -0.365 OA
ATOM     26  H   UNL     1      -0.200  -5.334  13.620  1.00  0.00     0.214 HD
ENDBRANCH  24  25
BRANCH  24  27
ATOM     27  N   UNL     1       1.869  -7.154  12.455  1.00  0.00    -0.259 NA
ATOM     28  C   UNL     1       1.470  -7.857  11.225  1.00  0.00     0.104 C 
ATOM     29  C   UNL     1       3.326  -6.967  12.549  1.00  0.00     0.089 C 
ATOM     30  C   UNL     1       2.792  -8.041  10.464  1.00  0.00     0.025 C 
ATOM     31  C   UNL     1       3.873  -7.925  11.513  1.00  0.00     0.017 C 
BRANCH  28  32
ATOM     32  C   UNL     1       0.762  -9.189  11.485  1.00  0.00     0.197 C 
BRANCH  32  33
ATOM     33  O   UNL     1       1.314 -10.254  11.191  1.00  0.00    -0.377 OA
ATOM     34  H   UNL     1       2.294 -10.121  11.165  1.00  0.00     0.212 HD
ENDBRANCH  32  33
BRANCH  32  35
ATOM     35  N   UNL     1      -0.471  -9.124  11.960  1.00  0.00    -0.305 NA
ATOM     36  H   UNL     1      -0.678  -8.156  12.246  1.00  0.00     0.121 HD
ATOM     37  H   UNL     1      -1.137  -9.416  11.231  1.00  0.00     0.121 HD
ENDBRANCH  32  35
ENDBRANCH  28  32
ENDBRANCH  24  27
ENDBRANCH   1  24
TORSDOF 10
ENDMDL
MODEL 8
REMARK VINA RESULT:    -7.980      2.459      3.918
REMARK INTER + INTRA:         -13.123
REMARK INTER:                 -12.572
REMARK INTRA:                  -0.550
REMARK UNBOUND:                -1.177
REMARK SMILES C[C@H]1N[C@@H](N[C@@H](O)N2CCC[C@H]2[C@@H](N)O)S[C@@H]1[C@H]1CCN[C@H](C(C)(C)C(F)(F)F)C1
REMARK SMILES IDX 5 1 4 3 2 4 17 5 3 6 16 7 1 8 18 10 19 11 30 12 20 13 22 14
REMARK SMILES IDX 21 15 23 17 24 18 25 19 26 20 27 21 28 22 29 23 6 24 7 25
REMARK SMILES IDX 8 27 12 28 9 29 11 30 10 31 13 32 15 33 14 35
REMARK H PARENT 5 2 3 9 21 16 7 26 15 34 14 36 14 37
ROOT
ATOM      1  N   UNL     1       0.905  -7.189  12.740  1.00  0.00    -0.255 NA
ATOM      2  H   UNL     1       0.543  -6.228  12.662  1.00  0.00     0.129 HD
ENDROOT
BRANCH   1   3
ATOM      3  C   UNL     1       0.352  -7.701  13.899  1.00  0.00     0.185 C 
ATOM      4  C   UNL     1      -0.259  -7.693  16.025  1.00  0.00     0.066 C 
ATOM      5  C   UNL     1      -0.743  -8.954  15.691  1.00  0.00     0.069 C 
ATOM      6  N   UNL     1       0.351  -6.996  15.001  1.00  0.00    -0.290 NA
ATOM      7  S   UNL     1      -0.370  -9.266  14.012  1.00  0.00    -0.122 SA
ATOM      8  C   UNL     1      -0.363  -7.041  17.365  1.00  0.00     0.025 C 
ATOM      9  H   UNL     1      -0.161  -6.117  14.840  1.00  0.00     0.125 HD
BRANCH   5  10
ATOM     10  C   UNL     1      -1.445 -10.026  16.431  1.00  0.00     0.006 C 
ATOM     11  C   UNL     1      -1.675 -11.272  15.857  1.00  0.00     0.020 C 
ATOM     12  C   UNL     1      -1.864  -9.804  17.739  1.00  0.00     0.024 C 
ATOM     13  C   UNL     1      -2.351 -12.222  16.590  1.00  0.00     0.081 C 
ATOM     14  C   UNL     1      -2.527 -10.840  18.411  1.00  0.00     0.068 C 
ATOM     15  N   UNL     1      -2.785 -12.026  17.843  1.00  0.00    -0.313 NA
ATOM     16  H   UNL     1      -3.808 -12.148  17.837  1.00  0.00     0.122 HD
BRANCH  14  17
ATOM     17  C   UNL     1      -2.960 -10.687  19.890  1.00  0.00     0.076 C 
ATOM     18  C   UNL     1      -2.015 -11.453  20.829  1.00  0.00     0.022 C 
ATOM     19  C   UNL     1      -2.988  -9.199  20.283  1.00  0.00     0.022 C 
BRANCH  17  20
ATOM     20  C   UNL     1      -4.459 -11.298  20.101  1.00  0.00     0.395 C 
ATOM     21  F   UNL     1      -5.242 -10.414  20.717  1.00  0.00    -0.170 F 
ATOM     22  F   UNL     1      -5.056 -11.617  18.959  1.00  0.00    -0.170 F 
ATOM     23  F   UNL     1      -4.445 -12.403  20.839  1.00  0.00    -0.170 F 
ENDBRANCH  17  20
ENDBRANCH  14  17
ENDBRANCH   5  10
ENDBRANCH   1   3
BRANCH   1  24
ATOM     24  C   UNL     1       2.283  -7.096  12.493  1.00  0.00     0.261 C 
BRANCH  24  25
ATOM     25  O   UNL     1       3.085  -6.900  13.394  1.00  0.00    -0.365 OA
ATOM     26  H   UNL     1       2.598  -6.694  14.231  1.00  0.00     0.214 HD
ENDBRANCH  24  25
BRANCH  24  27
ATOM     27  N   UNL     1       2.704  -7.235  11.185  1.00  0.00    -0.259 NA
ATOM     28  C   UNL     1       1.761  -7.699  10.154  1.00  0.00     0.104 C 
ATOM     29  C   UNL     1       4.042  -6.958  10.639  1.00  0.00     0.089 C 
ATOM     30  C   UNL     1       2.573  -7.617   8.852  1.00  0.00     0.025 C 
ATOM     31  C   UNL     1       4.020  -7.635   9.286  1.00  0.00     0.017 C 
BRANCH  28  32
ATOM     32  C   UNL     1       1.220  -9.107  10.410  1.00  0.00     0.197 C 
BRANCH  32  33
ATOM     33  O   UNL     1       1.996 -10.058  10.539  1.00  0.00    -0.377 OA
ATOM     34  H   UNL     1       2.586  -9.898  11.317  1.00  0.00     0.212 HD
ENDBRANCH  32  33
BRANCH  32  35
ATOM     35  N   UNL     1      -0.096  -9.246  10.409  1.00  0.00    -0.305 NA
ATOM     36  H   UNL     1      -0.478  -8.905  11.302  1.00  0.00     0.121 HD
ATOM     37  H   UNL     1      -0.499  -8.702   9.632  1.00  0.00     0.121 HD
ENDBRANCH  32  35
ENDBRANCH  28  32
ENDBRANCH  24  27
ENDBRANCH   1  24
TORSDOF 10
ENDMDL
MODEL 9
REMARK VINA RESULT:    -7.874      2.368      3.537
REMARK INTER + INTRA:         -12.963
REMARK INTER:                 -11.761
REMARK INTRA:                  -1.202
REMARK UNBOUND:                -1.177
REMARK SMILES C[C@H]1N[C@@H](N[C@@H](O)N2CCC[C@H]2[C@@H](N)O)S[C@@H]1[C@H]1CCN[C@H](C(C)(C)C(F)(F)F)C1
REMARK SMILES IDX 5 1 4 3 2 4 17 5 3 6 16 7 1 8 18 10 19 11 30 12 20 13 22 14
REMARK SMILES IDX 21 15 23 17 24 18 25 19 26 20 27 21 28 22 29 23 6 24 7 25
REMARK SMILES IDX 8 27 12 28 9 29 11 30 10 31 13 32 15 33 14 35
REMARK H PARENT 5 2 3 9 21 16 7 26 15 34 14 36 14 37
ROOT
ATOM      1  N   UNL     1       1.220  -6.480  14.451  1.00  0.00    -0.255 NA
ATOM      2  H   UNL     1       2.150  -6.907  14.574  1.00  0.00     0.129 HD
ENDROOT
BRANCH   1   3
ATOM      3  C   UNL     1       0.398  -7.112  15.364  1.00  0.00     0.185 C 
ATOM      4  C   UNL     1      -0.943  -8.701  16.119  1.00  0.00     0.066 C 
ATOM      5  C   UNL     1      -0.935  -7.900  17.257  1.00  0.00     0.069 C 
ATOM      6  N   UNL     1      -0.181  -8.246  15.063  1.00  0.00    -0.290 NA
ATOM      7  S   UNL     1       0.059  -6.497  16.943  1.00  0.00    -0.122 SA
ATOM      8  C   UNL     1      -1.676  -9.994  15.963  1.00  0.00     0.025 C 
ATOM      9  H   UNL     1       0.541  -8.945  14.841  1.00  0.00     0.125 HD
BRANCH   5  10
ATOM     10  C   UNL     1      -1.577  -7.980  18.588  1.00  0.00     0.006 C 
ATOM     11  C   UNL     1      -1.947  -6.834  19.283  1.00  0.00     0.020 C 
ATOM     12  C   UNL     1      -1.847  -9.223  19.152  1.00  0.00     0.024 C 
ATOM     13  C   UNL     1      -2.525  -6.974  20.526  1.00  0.00     0.081 C 
ATOM     14  C   UNL     1      -2.456  -9.263  20.415  1.00  0.00     0.068 C 
ATOM     15  N   UNL     1      -2.774  -8.158  21.103  1.00  0.00    -0.313 NA
ATOM     16  H   UNL     1      -2.250  -8.186  21.989  1.00  0.00     0.122 HD
BRANCH  14  17
ATOM     17  C   UNL     1      -2.846 -10.609  21.073  1.00  0.00     0.076 C 
ATOM     18  C   UNL     1      -1.797 -11.695  20.783  1.00  0.00     0.022 C 
ATOM     19  C   UNL     1      -3.002 -10.431  22.593  1.00  0.00     0.022 C 
BRANCH  17  20
ATOM     20  C   UNL     1      -4.270 -11.135  20.473  1.00  0.00     0.395 C 
ATOM     21  F   UNL     1      -4.579 -12.328  20.980  1.00  0.00    -0.170 F 
ATOM     22  F   UNL     1      -5.282 -10.322  20.750  1.00  0.00    -0.170 F 
ATOM     23  F   UNL     1      -4.237 -11.258  19.151  1.00  0.00    -0.170 F 
ENDBRANCH  17  20
ENDBRANCH  14  17
ENDBRANCH   5  10
ENDBRANCH   1   3
BRANCH   1  24
ATOM     24  C   UNL     1       0.996  -6.454  13.067  1.00  0.00     0.261 C 
BRANCH  24  25
ATOM     25  O   UNL     1      -0.005  -5.941  12.588  1.00  0.00    -0.365 OA
ATOM     26  H   UNL     1      -0.066  -6.173  11.627  1.00  0.00     0.214 HD
ENDBRANCH  24  25
BRANCH  24  27
ATOM     27  N   UNL     1       1.954  -7.033  12.257  1.00  0.00    -0.259 NA
ATOM     28  C   UNL     1       1.545  -7.880  11.124  1.00  0.00     0.104 C 
ATOM     29  C   UNL     1       3.416  -6.907  12.367  1.00  0.00     0.089 C 
ATOM     30  C   UNL     1       2.872  -8.232  10.434  1.00  0.00     0.025 C 
ATOM     31  C   UNL     1       3.935  -8.025  11.488  1.00  0.00     0.017 C 
BRANCH  28  32
ATOM     32  C   UNL     1       0.763  -9.126  11.544  1.00  0.00     0.197 C 
BRANCH  32  33
ATOM     33  O   UNL     1       1.220 -10.251  11.321  1.00  0.00    -0.377 OA
ATOM     34  H   UNL     1       1.376 -10.357  10.349  1.00  0.00     0.212 HD
ENDBRANCH  32  33
BRANCH  32  35
ATOM     35  N   UNL     1      -0.431  -8.927  12.076  1.00  0.00    -0.305 NA
ATOM     36  H   UNL     1      -1.112  -8.733  11.328  1.00  0.00     0.121 HD
ATOM     37  H   UNL     1      -0.722  -9.768  12.595  1.00  0.00     0.121 HD
ENDBRANCH  32  35
ENDBRANCH  28  32
ENDBRANCH  24  27
ENDBRANCH   1  24
TORSDOF 10
ENDMDL
MODEL 10
REMARK VINA RESULT:    -7.864      2.221      3.619
REMARK INTER + INTRA:         -12.949
REMARK INTER:                 -11.759
REMARK INTRA:                  -1.190
REMARK UNBOUND:                -1.177
REMARK SMILES C[C@H]1N[C@@H](N[C@@H](O)N2CCC[C@H]2[C@@H](N)O)S[C@@H]1[C@H]1CCN[C@H](C(C)(C)C(F)(F)F)C1
REMARK SMILES IDX 5 1 4 3 2 4 17 5 3 6 16 7 1 8 18 10 19 11 30 12 20 13 22 14
REMARK SMILES IDX 21 15 23 17 24 18 25 19 26 20 27 21 28 22 29 23 6 24 7 25
REMARK SMILES IDX 8 27 12 28 9 29 11 30 10 31 13 32 15 33 14 35
REMARK H PARENT 5 2 3 9 21 16 7 26 15 34 14 36 14 37
ROOT
ATOM      1  N   UNL     1       1.030  -6.923  12.799  1.00  0.00    -0.255 NA
ATOM      2  H   UNL     1       0.885  -5.905  12.862  1.00  0.00     0.129 HD
ENDROOT
BRANCH   1   3
ATOM      3  C   UNL     1       0.405  -7.457  13.910  1.00  0.00     0.185 C 
ATOM      4  C   UNL     1      -0.560  -9.031  15.128  1.00  0.00     0.066 C 
ATOM      5  C   UNL     1      -0.624  -8.000  16.061  1.00  0.00     0.069 C 
ATOM      6  N   UNL     1       0.030  -8.710  13.922  1.00  0.00    -0.290 NA
ATOM      7  S   UNL     1       0.066  -6.561  15.348  1.00  0.00    -0.122 SA
ATOM      8  C   UNL     1      -1.046 -10.429  15.332  1.00  0.00     0.025 C 
ATOM      9  H   UNL     1       0.853  -9.311  13.778  1.00  0.00     0.125 HD
BRANCH   5  10
ATOM     10  C   UNL     1      -1.147  -7.879  17.440  1.00  0.00     0.006 C 
ATOM     11  C   UNL     1      -1.194  -6.651  18.091  1.00  0.00     0.020 C 
ATOM     12  C   UNL     1      -1.632  -9.005  18.097  1.00  0.00     0.024 C 
ATOM     13  C   UNL     1      -1.675  -6.607  19.381  1.00  0.00     0.081 C 
ATOM     14  C   UNL     1      -2.121  -8.856  19.403  1.00  0.00     0.068 C 
ATOM     15  N   UNL     1      -2.126  -7.680  20.046  1.00  0.00    -0.313 NA
ATOM     16  H   UNL     1      -1.544  -7.787  20.889  1.00  0.00     0.122 HD
BRANCH  14  17
ATOM     17  C   UNL     1      -2.737 -10.052  20.169  1.00  0.00     0.076 C 
ATOM     18  C   UNL     1      -3.892  -9.596  21.076  1.00  0.00     0.022 C 
ATOM     19  C   UNL     1      -3.244 -11.113  19.177  1.00  0.00     0.022 C 
BRANCH  17  20
ATOM     20  C   UNL     1      -1.611 -10.745  21.126  1.00  0.00     0.395 C 
ATOM     21  F   UNL     1      -0.433 -10.142  20.974  1.00  0.00    -0.170 F 
ATOM     22  F   UNL     1      -1.916 -10.681  22.417  1.00  0.00    -0.170 F 
ATOM     23  F   UNL     1      -1.442 -12.032  20.842  1.00  0.00    -0.170 F 
ENDBRANCH  17  20
ENDBRANCH  14  17
ENDBRANCH   5  10
ENDBRANCH   1   3
BRANCH   1  24
ATOM     24  C   UNL     1       2.390  -7.093  12.496  1.00  0.00     0.261 C 
BRANCH  24  25
ATOM     25  O   UNL     1       3.245  -7.109  13.369  1.00  0.00    -0.365 OA
ATOM     26  H   UNL     1       4.020  -6.564  13.081  1.00  0.00     0.214 HD
ENDBRANCH  24  25
BRANCH  24  27
ATOM     27  N   UNL     1       2.730  -7.243  11.166  1.00  0.00    -0.259 NA
ATOM     28  C   UNL     1       1.725  -7.716  10.199  1.00  0.00     0.104 C 
ATOM     29  C   UNL     1       4.031  -6.970  10.536  1.00  0.00     0.089 C 
ATOM     30  C   UNL     1       2.456  -7.645   8.849  1.00  0.00     0.025 C 
ATOM     31  C   UNL     1       3.927  -7.658   9.193  1.00  0.00     0.017 C 
BRANCH  28  32
ATOM     32  C   UNL     1       1.202  -9.122  10.500  1.00  0.00     0.197 C 
BRANCH  32  33
ATOM     33  O   UNL     1       1.972 -10.087  10.492  1.00  0.00    -0.377 OA
ATOM     34  H   UNL     1       2.830  -9.827  10.911  1.00  0.00     0.212 HD
ENDBRANCH  32  33
BRANCH  32  35
ATOM     35  N   UNL     1      -0.102  -9.243  10.688  1.00  0.00    -0.305 NA
ATOM     36  H   UNL     1      -0.482  -9.934  10.027  1.00  0.00     0.121 HD
ATOM     37  H   UNL     1      -0.282  -9.555  11.653  1.00  0.00     0.121 HD
ENDBRANCH  32  35
ENDBRANCH  28  32
ENDBRANCH  24  27
ENDBRANCH   1  24
TORSDOF 10
ENDMDL
MODEL 11
REMARK VINA RESULT:    -7.735      1.475      2.167
REMARK INTER + INTRA:         -12.756
REMARK INTER:                 -11.550
REMARK INTRA:                  -1.206
REMARK UNBOUND:                -1.177
REMARK SMILES C[C@H]1N[C@@H](N[C@@H](O)N2CCC[C@H]2[C@@H](N)O)S[C@@H]1[C@H]1CCN[C@H](C(C)(C)C(F)(F)F)C1
REMARK SMILES IDX 5 1 4 3 2 4 17 5 3 6 16 7 1 8 18 10 19 11 30 12 20 13 22 14
REMARK SMILES IDX 21 15 23 17 24 18 25 19 26 20 27 21 28 22 29 23 6 24 7 25
REMARK SMILES IDX 8 27 12 28 9 29 11 30 10 31 13 32 15 33 14 35
REMARK H PARENT 5 2 3 9 21 16 7 26 15 34 14 36 14 37
ROOT
ATOM      1  N   UNL     1       0.591  -6.888  14.546  1.00  0.00    -0.255 NA
ATOM      2  H   UNL     1       1.574  -7.090  14.781  1.00  0.00     0.129 HD
ENDROOT
BRANCH   1   3
ATOM      3  C   UNL     1      -0.152  -7.863  15.183  1.00  0.00     0.185 C 
ATOM      4  C   UNL     1      -1.139  -9.830  15.410  1.00  0.00     0.066 C 
ATOM      5  C   UNL     1      -1.462  -9.308  16.658  1.00  0.00     0.069 C 
ATOM      6  N   UNL     1      -0.393  -9.005  14.592  1.00  0.00    -0.290 NA
ATOM      7  S   UNL     1      -0.815  -7.688  16.768  1.00  0.00    -0.122 SA
ATOM      8  C   UNL     1      -1.506 -11.188  14.906  1.00  0.00     0.025 C 
ATOM      9  H   UNL     1       0.500  -9.467  14.370  1.00  0.00     0.125 HD
BRANCH   5  10
ATOM     10  C   UNL     1      -2.217  -9.807  17.829  1.00  0.00     0.006 C 
ATOM     11  C   UNL     1      -3.335 -10.620  17.677  1.00  0.00     0.020 C 
ATOM     12  C   UNL     1      -1.792  -9.486  19.114  1.00  0.00     0.024 C 
ATOM     13  C   UNL     1      -4.006 -11.037  18.805  1.00  0.00     0.081 C 
ATOM     14  C   UNL     1      -2.530  -9.975  20.202  1.00  0.00     0.068 C 
ATOM     15  N   UNL     1      -3.632 -10.723  20.053  1.00  0.00    -0.313 NA
ATOM     16  H   UNL     1      -4.413 -10.211  20.489  1.00  0.00     0.122 HD
BRANCH  14  17
ATOM     17  C   UNL     1      -2.078  -9.714  21.659  1.00  0.00     0.076 C 
ATOM     18  C   UNL     1      -1.605  -8.263  21.843  1.00  0.00     0.022 C 
ATOM     19  C   UNL     1      -3.231 -10.011  22.634  1.00  0.00     0.022 C 
BRANCH  17  20
ATOM     20  C   UNL     1      -0.824 -10.686  22.040  1.00  0.00     0.395 C 
ATOM     21  F   UNL     1      -0.859 -11.010  23.332  1.00  0.00    -0.170 F 
ATOM     22  F   UNL     1      -0.822 -11.824  21.354  1.00  0.00    -0.170 F 
ATOM     23  F   UNL     1       0.346 -10.103  21.805  1.00  0.00    -0.170 F 
ENDBRANCH  17  20
ENDBRANCH  14  17
ENDBRANCH   5  10
ENDBRANCH   1   3
BRANCH   1  24
ATOM     24  C   UNL     1       0.574  -6.655  13.162  1.00  0.00     0.261 C 
BRANCH  24  25
ATOM     25  O   UNL     1      -0.270  -5.942  12.641  1.00  0.00    -0.365 OA
ATOM     26  H   UNL     1      -0.314  -6.137  11.671  1.00  0.00     0.214 HD
ENDBRANCH  24  25
BRANCH  24  27
ATOM     27  N   UNL     1       1.555  -7.265  12.403  1.00  0.00    -0.259 NA
ATOM     28  C   UNL     1       2.908  -6.687  12.347  1.00  0.00     0.104 C 
ATOM     29  C   UNL     1       1.434  -8.493  11.602  1.00  0.00     0.089 C 
ATOM     30  C   UNL     1       3.702  -7.697  11.505  1.00  0.00     0.025 C 
ATOM     31  C   UNL     1       2.663  -8.462  10.719  1.00  0.00     0.017 C 
BRANCH  28  32
ATOM     32  C   UNL     1       2.947  -5.279  11.749  1.00  0.00     0.197 C 
BRANCH  32  33
ATOM     33  O   UNL     1       2.959  -5.124  10.525  1.00  0.00    -0.377 OA
ATOM     34  H   UNL     1       2.032  -5.004  10.199  1.00  0.00     0.212 HD
ENDBRANCH  32  33
BRANCH  32  35
ATOM     35  N   UNL     1       3.039  -4.273  12.604  1.00  0.00    -0.305 NA
ATOM     36  H   UNL     1       3.909  -4.364  13.147  1.00  0.00     0.121 HD
ATOM     37  H   UNL     1       3.048  -3.382  12.087  1.00  0.00     0.121 HD
ENDBRANCH  32  35
ENDBRANCH  28  32
ENDBRANCH  24  27
ENDBRANCH   1  24
TORSDOF 10
ENDMDL
MODEL 12
REMARK VINA RESULT:    -7.720      3.461      5.214
REMARK INTER + INTRA:         -12.734
REMARK INTER:                 -12.137
REMARK INTRA:                  -0.597
REMARK UNBOUND:                -1.177
REMARK SMILES C[C@H]1N[C@@H](N[C@@H](O)N2CCC[C@H]2[C@@H](N)O)S[C@@H]1[C@H]1CCN[C@H](C(C)(C)C(F)(F)F)C1
REMARK SMILES IDX 5 1 4 3 2 4 17 5 3 6 16 7 1 8 18 10 19 11 30 12 20 13 22 14
REMARK SMILES IDX 21 15 23 17 24 18 25 19 26 20 27 21 28 22 29 23 6 24 7 25
REMARK SMILES IDX 8 27 12 28 9 29 11 30 10 31 13 32 15 33 14 35
REMARK H PARENT 5 2 3 9 21 16 7 26 15 34 14 36 14 37
ROOT
ATOM      1  N   UNL     1       1.129  -7.594  11.592  1.00  0.00    -0.255 NA
ATOM      2  H   UNL     1       2.094  -7.235  11.575  1.00  0.00     0.129 HD
ENDROOT
BRANCH   1   3
ATOM      3  C   UNL     1       0.782  -7.666  12.927  1.00  0.00     0.185 C 
ATOM      4  C   UNL     1       0.862  -7.126  15.071  1.00  0.00     0.066 C 
ATOM      5  C   UNL     1      -0.140  -8.087  15.153  1.00  0.00     0.069 C 
ATOM      6  N   UNL     1       1.367  -6.895  13.808  1.00  0.00    -0.290 NA
ATOM      7  S   UNL     1      -0.416  -8.741  13.556  1.00  0.00    -0.122 SA
ATOM      8  C   UNL     1       1.405  -6.327  16.211  1.00  0.00     0.025 C 
ATOM      9  H   UNL     1       1.207  -5.910  13.554  1.00  0.00     0.125 HD
BRANCH   5  10
ATOM     10  C   UNL     1      -0.952  -8.650  16.255  1.00  0.00     0.006 C 
ATOM     11  C   UNL     1      -1.170  -7.939  17.430  1.00  0.00     0.020 C 
ATOM     12  C   UNL     1      -1.537  -9.904  16.112  1.00  0.00     0.024 C 
ATOM     13  C   UNL     1      -1.918  -8.525  18.427  1.00  0.00     0.081 C 
ATOM     14  C   UNL     1      -2.300 -10.408  17.175  1.00  0.00     0.068 C 
ATOM     15  N   UNL     1      -2.474  -9.741  18.324  1.00  0.00    -0.313 NA
ATOM     16  H   UNL     1      -2.084 -10.322  19.080  1.00  0.00     0.122 HD
BRANCH  14  17
ATOM     17  C   UNL     1      -3.035 -11.766  17.060  1.00  0.00     0.076 C 
ATOM     18  C   UNL     1      -2.044 -12.940  17.095  1.00  0.00     0.022 C 
ATOM     19  C   UNL     1      -4.055 -11.915  18.202  1.00  0.00     0.022 C 
BRANCH  17  20
ATOM     20  C   UNL     1      -3.840 -11.850  15.643  1.00  0.00     0.395 C 
ATOM     21  F   UNL     1      -2.985 -11.940  14.625  1.00  0.00    -0.170 F 
ATOM     22  F   UNL     1      -4.647 -12.901  15.566  1.00  0.00    -0.170 F 
ATOM     23  F   UNL     1      -4.597 -10.778  15.437  1.00  0.00    -0.170 F 
ENDBRANCH  17  20
ENDBRANCH  14  17
ENDBRANCH   5  10
ENDBRANCH   1   3
BRANCH   1  24
ATOM     24  C   UNL     1       1.115  -8.684  10.709  1.00  0.00     0.261 C 
BRANCH  24  25
ATOM     25  O   UNL     1       0.070  -9.191  10.330  1.00  0.00    -0.365 OA
ATOM     26  H   UNL     1      -0.289  -9.778  11.042  1.00  0.00     0.214 HD
ENDBRANCH  24  25
BRANCH  24  27
ATOM     27  N   UNL     1       2.336  -9.168  10.278  1.00  0.00    -0.259 NA
ATOM     28  C   UNL     1       3.339  -8.244   9.723  1.00  0.00     0.104 C 
ATOM     29  C   UNL     1       2.809 -10.561  10.308  1.00  0.00     0.089 C 
ATOM     30  C   UNL     1       4.561  -9.141   9.470  1.00  0.00     0.025 C 
ATOM     31  C   UNL     1       4.012 -10.546   9.389  1.00  0.00     0.017 C 
BRANCH  28  32
ATOM     32  C   UNL     1       2.874  -7.528   8.453  1.00  0.00     0.197 C 
BRANCH  32  33
ATOM     33  O   UNL     1       2.980  -6.302   8.356  1.00  0.00    -0.377 OA
ATOM     34  H   UNL     1       2.570  -6.003   7.506  1.00  0.00     0.212 HD
ENDBRANCH  32  33
BRANCH  32  35
ATOM     35  N   UNL     1       2.301  -8.277   7.525  1.00  0.00    -0.305 NA
ATOM     36  H   UNL     1       2.742  -8.093   6.614  1.00  0.00     0.121 HD
ATOM     37  H   UNL     1       2.416  -9.272   7.767  1.00  0.00     0.121 HD
ENDBRANCH  32  35
ENDBRANCH  28  32
ENDBRANCH  24  27
ENDBRANCH   1  24
TORSDOF 10
ENDMDL
MODEL 13
REMARK VINA RESULT:    -7.704      2.254      4.062
REMARK INTER + INTRA:         -12.709
REMARK INTER:                 -11.695
REMARK INTRA:                  -1.014
REMARK UNBOUND:                -1.177
REMARK SMILES C[C@H]1N[C@@H](N[C@@H](O)N2CCC[C@H]2[C@@H](N)O)S[C@@H]1[C@H]1CCN[C@H](C(C)(C)C(F)(F)F)C1
REMARK SMILES IDX 5 1 4 3 2 4 17 5 3 6 16 7 1 8 18 10 19 11 30 12 20 13 22 14
REMARK SMILES IDX 21 15 23 17 24 18 25 19 26 20 27 21 28 22 29 23 6 24 7 25
REMARK SMILES IDX 8 27 12 28 9 29 11 30 10 31 13 32 15 33 14 35
REMARK H PARENT 5 2 3 9 21 16 7 26 15 34 14 36 14 37
ROOT
ATOM      1  N   UNL     1       1.242  -7.116  13.833  1.00  0.00    -0.255 NA
ATOM      2  H   UNL     1       1.108  -8.131  13.719  1.00  0.00     0.129 HD
ENDROOT
BRANCH   1   3
ATOM      3  C   UNL     1       0.554  -6.778  14.983  1.00  0.00     0.185 C 
ATOM      4  C   UNL     1      -0.436  -5.423  16.425  1.00  0.00     0.066 C 
ATOM      5  C   UNL     1      -0.684  -6.622  17.086  1.00  0.00     0.069 C 
ATOM      6  N   UNL     1       0.257  -5.529  15.236  1.00  0.00    -0.290 NA
ATOM      7  S   UNL     1       0.031  -7.924  16.165  1.00  0.00    -0.122 SA
ATOM      8  C   UNL     1      -0.871  -4.067  16.876  1.00  0.00     0.025 C 
ATOM      9  H   UNL     1      -0.324  -5.158  14.471  1.00  0.00     0.125 HD
BRANCH   5  10
ATOM     10  C   UNL     1      -1.367  -6.991  18.346  1.00  0.00     0.006 C 
ATOM     11  C   UNL     1      -1.733  -6.028  19.280  1.00  0.00     0.020 C 
ATOM     12  C   UNL     1      -1.679  -8.323  18.600  1.00  0.00     0.024 C 
ATOM     13  C   UNL     1      -2.349  -6.436  20.443  1.00  0.00     0.081 C 
ATOM     14  C   UNL     1      -2.326  -8.638  19.803  1.00  0.00     0.068 C 
ATOM     15  N   UNL     1      -2.640  -7.715  20.722  1.00  0.00    -0.313 NA
ATOM     16  H   UNL     1      -2.142  -7.961  21.590  1.00  0.00     0.122 HD
BRANCH  14  17
ATOM     17  C   UNL     1      -2.763 -10.089  20.121  1.00  0.00     0.076 C 
ATOM     18  C   UNL     1      -4.124 -10.116  20.836  1.00  0.00     0.022 C 
ATOM     19  C   UNL     1      -2.842 -10.915  18.826  1.00  0.00     0.022 C 
BRANCH  17  20
ATOM     20  C   UNL     1      -1.678 -10.798  21.113  1.00  0.00     0.395 C 
ATOM     21  F   UNL     1      -0.514 -10.152  21.070  1.00  0.00    -0.170 F 
ATOM     22  F   UNL     1      -2.068 -10.812  22.382  1.00  0.00    -0.170 F 
ATOM     23  F   UNL     1      -1.449 -12.062  20.775  1.00  0.00    -0.170 F 
ENDBRANCH  17  20
ENDBRANCH  14  17
ENDBRANCH   5  10
ENDBRANCH   1   3
BRANCH   1  24
ATOM     24  C   UNL     1       0.996  -6.558  12.569  1.00  0.00     0.261 C 
BRANCH  24  25
ATOM     25  O   UNL     1       0.006  -5.877  12.349  1.00  0.00    -0.365 OA
ATOM     26  H   UNL     1      -0.781  -6.467  12.230  1.00  0.00     0.214 HD
ENDBRANCH  24  25
BRANCH  24  27
ATOM     27  N   UNL     1       1.922  -6.808  11.574  1.00  0.00    -0.259 NA
ATOM     28  C   UNL     1       1.512  -7.513  10.349  1.00  0.00     0.104 C 
ATOM     29  C   UNL     1       3.345  -6.436  11.560  1.00  0.00     0.089 C 
ATOM     30  C   UNL     1       2.777  -7.495   9.477  1.00  0.00     0.025 C 
ATOM     31  C   UNL     1       3.920  -7.276  10.440  1.00  0.00     0.017 C 
BRANCH  28  32
ATOM     32  C   UNL     1       1.005  -8.934  10.602  1.00  0.00     0.197 C 
BRANCH  32  33
ATOM     33  O   UNL     1      -0.189  -9.205  10.446  1.00  0.00    -0.377 OA
ATOM     34  H   UNL     1      -0.312 -10.187  10.482  1.00  0.00     0.212 HD
ENDBRANCH  32  33
BRANCH  32  35
ATOM     35  N   UNL     1       1.888  -9.808  11.058  1.00  0.00    -0.305 NA
ATOM     36  H   UNL     1       1.987 -10.579  10.383  1.00  0.00     0.121 HD
ATOM     37  H   UNL     1       2.798  -9.342  11.184  1.00  0.00     0.121 HD
ENDBRANCH  32  35
ENDBRANCH  28  32
ENDBRANCH  24  27
ENDBRANCH   1  24
TORSDOF 10
ENDMDL
MODEL 14
REMARK VINA RESULT:    -7.556      3.360      4.387
REMARK INTER + INTRA:         -12.488
REMARK INTER:                 -11.428
REMARK INTRA:                  -1.059
REMARK UNBOUND:                -1.177
REMARK SMILES C[C@H]1N[C@@H](N[C@@H](O)N2CCC[C@H]2[C@@H](N)O)S[C@@H]1[C@H]1CCN[C@H](C(C)(C)C(F)(F)F)C1
REMARK SMILES IDX 5 1 4 3 2 4 17 5 3 6 16 7 1 8 18 10 19 11 30 12 20 13 22 14
REMARK SMILES IDX 21 15 23 17 24 18 25 19 26 20 27 21 28 22 29 23 6 24 7 25
REMARK SMILES IDX 8 27 12 28 9 29 11 30 10 31 13 32 15 33 14 35
REMARK H PARENT 5 2 3 9 21 16 7 26 15 34 14 36 14 37
ROOT
ATOM      1  N   UNL     1       0.711  -8.116  12.175  1.00  0.00    -0.255 NA
ATOM      2  H   UNL     1       1.668  -7.819  12.414  1.00  0.00     0.129 HD
ENDROOT
BRANCH   1   3
ATOM      3  C   UNL     1       0.135  -8.509  13.368  1.00  0.00     0.185 C 
ATOM      4  C   UNL     1      -0.898  -9.883  14.760  1.00  0.00     0.066 C 
ATOM      5  C   UNL     1      -0.740  -8.810  15.632  1.00  0.00     0.069 C 
ATOM      6  N   UNL     1      -0.393  -9.700  13.489  1.00  0.00    -0.290 NA
ATOM      7  S   UNL     1       0.053  -7.509  14.774  1.00  0.00    -0.122 SA
ATOM      8  C   UNL     1      -1.535 -11.194  15.091  1.00  0.00     0.025 C 
ATOM      9  H   UNL     1       0.330 -10.410  13.307  1.00  0.00     0.125 HD
BRANCH   5  10
ATOM     10  C   UNL     1      -1.107  -8.554  17.042  1.00  0.00     0.006 C 
ATOM     11  C   UNL     1      -1.625  -9.561  17.849  1.00  0.00     0.020 C 
ATOM     12  C   UNL     1      -0.908  -7.291  17.591  1.00  0.00     0.024 C 
ATOM     13  C   UNL     1      -1.965  -9.256  19.149  1.00  0.00     0.081 C 
ATOM     14  C   UNL     1      -1.268  -7.083  18.930  1.00  0.00     0.068 C 
ATOM     15  N   UNL     1      -1.806  -8.042  19.695  1.00  0.00    -0.313 NA
ATOM     16  H   UNL     1      -2.736  -7.714  19.992  1.00  0.00     0.122 HD
BRANCH  14  17
ATOM     17  C   UNL     1      -1.013  -5.723  19.625  1.00  0.00     0.076 C 
ATOM     18  C   UNL     1      -1.167  -5.840  21.150  1.00  0.00     0.022 C 
ATOM     19  C   UNL     1       0.398  -5.210  19.286  1.00  0.00     0.022 C 
BRANCH  17  20
ATOM     20  C   UNL     1      -2.096  -4.617  19.110  1.00  0.00     0.395 C 
ATOM     21  F   UNL     1      -2.361  -3.737  20.074  1.00  0.00    -0.170 F 
ATOM     22  F   UNL     1      -1.671  -3.925  18.059  1.00  0.00    -0.170 F 
ATOM     23  F   UNL     1      -3.246  -5.178  18.752  1.00  0.00    -0.170 F 
ENDBRANCH  17  20
ENDBRANCH  14  17
ENDBRANCH   5  10
ENDBRANCH   1   3
BRANCH   1  24
ATOM     24  C   UNL     1       0.842  -8.941  11.048  1.00  0.00     0.261 C 
BRANCH  24  25
ATOM     25  O   UNL     1      -0.132  -9.336  10.424  1.00  0.00    -0.365 OA
ATOM     26  H   UNL     1       0.166  -9.931   9.690  1.00  0.00     0.214 HD
ENDBRANCH  24  25
BRANCH  24  27
ATOM     27  N   UNL     1       2.122  -9.293  10.664  1.00  0.00    -0.259 NA
ATOM     28  C   UNL     1       3.149  -8.252  10.485  1.00  0.00     0.104 C 
ATOM     29  C   UNL     1       2.640 -10.645  10.401  1.00  0.00     0.089 C 
ATOM     30  C   UNL     1       4.424  -9.049  10.168  1.00  0.00     0.025 C 
ATOM     31  C   UNL     1       3.940 -10.391   9.671  1.00  0.00     0.017 C 
BRANCH  28  32
ATOM     32  C   UNL     1       2.811  -7.241   9.388  1.00  0.00     0.197 C 
BRANCH  32  33
ATOM     33  O   UNL     1       2.914  -6.031   9.604  1.00  0.00    -0.377 OA
ATOM     34  H   UNL     1       3.353  -5.594   8.832  1.00  0.00     0.212 HD
ENDBRANCH  32  33
BRANCH  32  35
ATOM     35  N   UNL     1       2.343  -7.733   8.251  1.00  0.00    -0.305 NA
ATOM     36  H   UNL     1       2.030  -6.960   7.647  1.00  0.00     0.121 HD
ATOM     37  H   UNL     1       3.087  -8.262   7.774  1.00  0.00     0.121 HD
ENDBRANCH  32  35
ENDBRANCH  28  32
ENDBRANCH  24  27
ENDBRANCH   1  24
TORSDOF 10
ENDMDL
MODEL 15
REMARK VINA RESULT:    -7.514      4.074      8.702
REMARK INTER + INTRA:         -12.425
REMARK INTER:                 -11.327
REMARK INTRA:                  -1.098
REMARK UNBOUND:                -1.177
REMARK SMILES C[C@H]1N[C@@H](N[C@@H](O)N2CCC[C@H]2[C@@H](N)O)S[C@@H]1[C@H]1CCN[C@H](C(C)(C)C(F)(F)F)C1
REMARK SMILES IDX 5 1 4 3 2 4 17 5 3 6 16 7 1 8 18 10 19 11 30 12 20 13 22 14
REMARK SMILES IDX 21 15 23 17 24 18 25 19 26 20 27 21 28 22 29 23 6 24 7 25
REMARK SMILES IDX 8 27 12 28 9 29 11 30 10 31 13 32 15 33 14 35
REMARK H PARENT 5 2 3 9 21 16 7 26 15 34 14 36 14 37
ROOT
ATOM      1  N   UNL     1      -3.620 -11.721  20.068  1.00  0.00    -0.255 NA
ATOM      2  H   UNL     1      -2.950 -11.223  20.671  1.00  0.00     0.129 HD
ENDROOT
BRANCH   1   3
ATOM      3  C   UNL     1      -3.261 -11.403  18.772  1.00  0.00     0.185 C 
ATOM      4  C   UNL     1      -3.376 -11.478  16.564  1.00  0.00     0.066 C 
ATOM      5  C   UNL     1      -2.344 -10.551  16.671  1.00  0.00     0.069 C 
ATOM      6  N   UNL     1      -3.887 -11.944  17.758  1.00  0.00    -0.290 NA
ATOM      7  S   UNL     1      -1.996 -10.299  18.365  1.00  0.00    -0.122 SA
ATOM      8  C   UNL     1      -3.975 -11.979  15.290  1.00  0.00     0.025 C 
ATOM      9  H   UNL     1      -4.888 -11.706  17.813  1.00  0.00     0.125 HD
BRANCH   5  10
ATOM     10  C   UNL     1      -1.515  -9.802  15.700  1.00  0.00     0.006 C 
ATOM     11  C   UNL     1      -1.401 -10.214  14.377  1.00  0.00     0.020 C 
ATOM     12  C   UNL     1      -0.855  -8.645  16.102  1.00  0.00     0.024 C 
ATOM     13  C   UNL     1      -0.600  -9.485  13.526  1.00  0.00     0.081 C 
ATOM     14  C   UNL     1      -0.078  -7.960  15.157  1.00  0.00     0.068 C 
ATOM     15  N   UNL     1       0.066  -8.380  13.893  1.00  0.00    -0.313 NA
ATOM     16  H   UNL     1       1.068  -8.560  13.740  1.00  0.00     0.122 HD
BRANCH  14  17
ATOM     17  C   UNL     1       0.628  -6.630  15.515  1.00  0.00     0.076 C 
ATOM     18  C   UNL     1       1.773  -6.860  16.515  1.00  0.00     0.022 C 
ATOM     19  C   UNL     1       1.179  -5.962  14.242  1.00  0.00     0.022 C 
BRANCH  17  20
ATOM     20  C   UNL     1      -0.429  -5.602  16.213  1.00  0.00     0.395 C 
ATOM     21  F   UNL     1      -1.546  -5.518  15.491  1.00  0.00    -0.170 F 
ATOM     22  F   UNL     1      -0.785  -5.976  17.437  1.00  0.00    -0.170 F 
ATOM     23  F   UNL     1       0.069  -4.376  16.324  1.00  0.00    -0.170 F 
ENDBRANCH  17  20
ENDBRANCH  14  17
ENDBRANCH   5  10
ENDBRANCH   1   3
BRANCH   1  24
ATOM     24  C   UNL     1      -4.884 -11.475  20.624  1.00  0.00     0.261 C 
BRANCH  24  25
ATOM     25  O   UNL     1      -5.712 -10.778  20.055  1.00  0.00    -0.365 OA
ATOM     26  H   UNL     1      -6.178 -10.210  20.718  1.00  0.00     0.214 HD
ENDBRANCH  24  25
BRANCH  24  27
ATOM     27  N   UNL     1      -5.164 -12.052  21.848  1.00  0.00    -0.259 NA
ATOM     28  C   UNL     1      -5.150 -11.230  23.069  1.00  0.00     0.104 C 
ATOM     29  C   UNL     1      -5.504 -13.457  22.120  1.00  0.00     0.089 C 
ATOM     30  C   UNL     1      -5.604 -12.202  24.169  1.00  0.00     0.025 C 
ATOM     31  C   UNL     1      -5.328 -13.581  23.617  1.00  0.00     0.017 C 
BRANCH  28  32
ATOM     32  C   UNL     1      -3.785 -10.609  23.373  1.00  0.00     0.197 C 
BRANCH  32  33
ATOM     33  O   UNL     1      -2.750 -11.248  23.160  1.00  0.00    -0.377 OA
ATOM     34  H   UNL     1      -2.344 -11.515  24.022  1.00  0.00     0.212 HD
ENDBRANCH  32  33
BRANCH  32  35
ATOM     35  N   UNL     1      -3.789  -9.410  23.932  1.00  0.00    -0.305 NA
ATOM     36  H   UNL     1      -2.892  -8.941  23.745  1.00  0.00     0.121 HD
ATOM     37  H   UNL     1      -4.559  -8.850  23.539  1.00  0.00     0.121 HD
ENDBRANCH  32  35
ENDBRANCH  28  32
ENDBRANCH  24  27
ENDBRANCH   1  24
TORSDOF 10
ENDMDL
MODEL 16
REMARK VINA RESULT:    -7.510      2.057      3.157
REMARK INTER + INTRA:         -12.419
REMARK INTER:                 -11.172
REMARK INTRA:                  -1.247
REMARK UNBOUND:                -1.177
REMARK SMILES C[C@H]1N[C@@H](N[C@@H](O)N2CCC[C@H]2[C@@H](N)O)S[C@@H]1[C@H]1CCN[C@H](C(C)(C)C(F)(F)F)C1
REMARK SMILES IDX 5 1 4 3 2 4 17 5 3 6 16 7 1 8 18 10 19 11 30 12 20 13 22 14
REMARK SMILES IDX 21 15 23 17 24 18 25 19 26 20 27 21 28 22 29 23 6 24 7 25
REMARK SMILES IDX 8 27 12 28 9 29 11 30 10 31 13 32 15 33 14 35
REMARK H PARENT 5 2 3 9 21 16 7 26 15 34 14 36 14 37
ROOT
ATOM      1  N   UNL     1       1.117  -6.754  14.361  1.00  0.00    -0.255 NA
ATOM      2  H   UNL     1       2.027  -7.233  14.409  1.00  0.00     0.129 HD
ENDROOT
BRANCH   1   3
ATOM      3  C   UNL     1       0.360  -7.293  15.384  1.00  0.00     0.185 C 
ATOM      4  C   UNL     1      -0.967  -8.771  16.357  1.00  0.00     0.066 C 
ATOM      5  C   UNL     1      -0.818  -7.907  17.437  1.00  0.00     0.069 C 
ATOM      6  N   UNL     1      -0.291  -8.414  15.208  1.00  0.00    -0.290 NA
ATOM      7  S   UNL     1       0.198  -6.572  16.946  1.00  0.00    -0.122 SA
ATOM      8  C   UNL     1      -1.763 -10.036  16.350  1.00  0.00     0.025 C 
ATOM      9  H   UNL     1       0.378  -9.158  14.965  1.00  0.00     0.125 HD
BRANCH   5  10
ATOM     10  C   UNL     1      -1.334  -7.879  18.824  1.00  0.00     0.006 C 
ATOM     11  C   UNL     1      -1.951  -6.747  19.345  1.00  0.00     0.020 C 
ATOM     12  C   UNL     1      -1.230  -9.014  19.623  1.00  0.00     0.024 C 
ATOM     13  C   UNL     1      -2.393  -6.778  20.649  1.00  0.00     0.081 C 
ATOM     14  C   UNL     1      -1.728  -8.954  20.933  1.00  0.00     0.068 C 
ATOM     15  N   UNL     1      -2.284  -7.849  21.448  1.00  0.00    -0.313 NA
ATOM     16  H   UNL     1      -1.718  -7.570  22.262  1.00  0.00     0.122 HD
BRANCH  14  17
ATOM     17  C   UNL     1      -1.708 -10.197  21.855  1.00  0.00     0.076 C 
ATOM     18  C   UNL     1      -2.947 -10.237  22.763  1.00  0.00     0.022 C 
ATOM     19  C   UNL     1      -1.642 -11.483  21.011  1.00  0.00     0.022 C 
BRANCH  17  20
ATOM     20  C   UNL     1      -0.395 -10.156  22.823  1.00  0.00     0.395 C 
ATOM     21  F   UNL     1      -0.153 -11.362  23.336  1.00  0.00    -0.170 F 
ATOM     22  F   UNL     1       0.707  -9.776  22.188  1.00  0.00    -0.170 F 
ATOM     23  F   UNL     1      -0.553  -9.314  23.839  1.00  0.00    -0.170 F 
ENDBRANCH  17  20
ENDBRANCH  14  17
ENDBRANCH   5  10
ENDBRANCH   1   3
BRANCH   1  24
ATOM     24  C   UNL     1       0.749  -6.773  13.008  1.00  0.00     0.261 C 
BRANCH  24  25
ATOM     25  O   UNL     1      -0.007  -5.937  12.536  1.00  0.00    -0.365 OA
ATOM     26  H   UNL     1       0.473  -5.076  12.437  1.00  0.00     0.214 HD
ENDBRANCH  24  25
BRANCH  24  27
ATOM     27  N   UNL     1       1.277  -7.778  12.220  1.00  0.00    -0.259 NA
ATOM     28  C   UNL     1       2.637  -7.645  11.672  1.00  0.00     0.104 C 
ATOM     29  C   UNL     1       0.638  -9.046  11.837  1.00  0.00     0.089 C 
ATOM     30  C   UNL     1       2.877  -8.986  10.962  1.00  0.00     0.025 C 
ATOM     31  C   UNL     1       1.500  -9.548  10.699  1.00  0.00     0.017 C 
BRANCH  28  32
ATOM     32  C   UNL     1       2.801  -6.453  10.726  1.00  0.00     0.197 C 
BRANCH  32  33
ATOM     33  O   UNL     1       2.369  -6.511   9.571  1.00  0.00    -0.377 OA
ATOM     34  H   UNL     1       1.626  -7.164   9.530  1.00  0.00     0.212 HD
ENDBRANCH  32  33
BRANCH  32  35
ATOM     35  N   UNL     1       3.481  -5.417  11.189  1.00  0.00    -0.305 NA
ATOM     36  H   UNL     1       2.826  -4.701  11.531  1.00  0.00     0.121 HD
ATOM     37  H   UNL     1       4.089  -5.723  11.963  1.00  0.00     0.121 HD
ENDBRANCH  32  35
ENDBRANCH  28  32
ENDBRANCH  24  27
ENDBRANCH   1  24
TORSDOF 10
ENDMDL
MODEL 17
REMARK VINA RESULT:    -7.331      5.495     10.005
REMARK INTER + INTRA:         -12.151
REMARK INTER:                 -11.618
REMARK INTRA:                  -0.533
REMARK UNBOUND:                -1.177
REMARK SMILES C[C@H]1N[C@@H](N[C@@H](O)N2CCC[C@H]2[C@@H](N)O)S[C@@H]1[C@H]1CCN[C@H](C(C)(C)C(F)(F)F)C1
REMARK SMILES IDX 5 1 4 3 2 4 17 5 3 6 16 7 1 8 18 10 19 11 30 12 20 13 22 14
REMARK SMILES IDX 21 15 23 17 24 18 25 19 26 20 27 21 28 22 29 23 6 24 7 25
REMARK SMILES IDX 8 27 12 28 9 29 11 30 10 31 13 32 15 33 14 35
REMARK H PARENT 5 2 3 9 21 16 7 26 15 34 14 36 14 37
ROOT
ATOM      1  N   UNL     1      -1.703  -8.219  24.485  1.00  0.00    -0.255 NA
ATOM      2  H   UNL     1      -0.673  -8.238  24.524  1.00  0.00     0.129 HD
ENDROOT
BRANCH   1   3
ATOM      3  C   UNL     1      -2.037  -8.724  23.243  1.00  0.00     0.185 C 
ATOM      4  C   UNL     1      -3.035 -10.088  21.815  1.00  0.00     0.066 C 
ATOM      5  C   UNL     1      -2.399  -9.269  20.887  1.00  0.00     0.069 C 
ATOM      6  N   UNL     1      -2.826  -9.763  23.140  1.00  0.00    -0.290 NA
ATOM      7  S   UNL     1      -1.474  -8.064  21.750  1.00  0.00    -0.122 SA
ATOM      8  C   UNL     1      -3.921 -11.248  21.498  1.00  0.00     0.025 C 
ATOM      9  H   UNL     1      -3.731  -9.545  23.581  1.00  0.00     0.125 HD
BRANCH   5  10
ATOM     10  C   UNL     1      -2.333  -9.231  19.409  1.00  0.00     0.006 C 
ATOM     11  C   UNL     1      -2.004  -8.064  18.728  1.00  0.00     0.020 C 
ATOM     12  C   UNL     1      -2.576 -10.389  18.676  1.00  0.00     0.024 C 
ATOM     13  C   UNL     1      -1.977  -8.089  17.351  1.00  0.00     0.081 C 
ATOM     14  C   UNL     1      -2.506 -10.319  17.277  1.00  0.00     0.068 C 
ATOM     15  N   UNL     1      -2.230  -9.184  16.620  1.00  0.00    -0.313 NA
ATOM     16  H   UNL     1      -3.039  -8.972  16.018  1.00  0.00     0.122 HD
BRANCH  14  17
ATOM     17  C   UNL     1      -2.699 -11.581  16.402  1.00  0.00     0.076 C 
ATOM     18  C   UNL     1      -2.697 -11.226  14.906  1.00  0.00     0.022 C 
ATOM     19  C   UNL     1      -1.586 -12.603  16.692  1.00  0.00     0.022 C 
BRANCH  17  20
ATOM     20  C   UNL     1      -4.134 -12.281  16.735  1.00  0.00     0.395 C 
ATOM     21  F   UNL     1      -4.002 -13.605  16.814  1.00  0.00    -0.170 F 
ATOM     22  F   UNL     1      -4.656 -11.873  17.885  1.00  0.00    -0.170 F 
ATOM     23  F   UNL     1      -5.041 -12.025  15.798  1.00  0.00    -0.170 F 
ENDBRANCH  17  20
ENDBRANCH  14  17
ENDBRANCH   5  10
ENDBRANCH   1   3
BRANCH   1  24
ATOM     24  C   UNL     1      -2.074  -6.949  24.951  1.00  0.00     0.261 C 
BRANCH  24  25
ATOM     25  O   UNL     1      -1.832  -5.934  24.314  1.00  0.00    -0.365 OA
ATOM     26  H   UNL     1      -2.272  -5.160  24.746  1.00  0.00     0.214 HD
ENDBRANCH  24  25
BRANCH  24  27
ATOM     27  N   UNL     1      -2.730  -6.884  26.165  1.00  0.00    -0.259 NA
ATOM     28  C   UNL     1      -2.074  -6.254  27.323  1.00  0.00     0.104 C 
ATOM     29  C   UNL     1      -4.079  -7.379  26.483  1.00  0.00     0.089 C 
ATOM     30  C   UNL     1      -3.151  -6.293  28.418  1.00  0.00     0.025 C 
ATOM     31  C   UNL     1      -4.107  -7.383  27.996  1.00  0.00     0.017 C 
BRANCH  28  32
ATOM     32  C   UNL     1      -0.785  -6.957  27.753  1.00  0.00     0.197 C 
BRANCH  32  33
ATOM     33  O   UNL     1      -0.656  -8.174  27.590  1.00  0.00    -0.377 OA
ATOM     34  H   UNL     1      -1.365  -8.650  28.090  1.00  0.00     0.212 HD
ENDBRANCH  32  33
BRANCH  32  35
ATOM     35  N   UNL     1       0.123  -6.212  28.362  1.00  0.00    -0.305 NA
ATOM     36  H   UNL     1       0.894  -6.810  28.690  1.00  0.00     0.121 HD
ATOM     37  H   UNL     1       0.490  -5.510  27.703  1.00  0.00     0.121 HD
ENDBRANCH  32  35
ENDBRANCH  28  32
ENDBRANCH  24  27
ENDBRANCH   1  24
TORSDOF 10
ENDMDL
MODEL 18
REMARK VINA RESULT:    -7.321      2.649      4.132
REMARK INTER + INTRA:         -12.136
REMARK INTER:                 -11.320
REMARK INTRA:                  -0.816
REMARK UNBOUND:                -1.177
REMARK SMILES C[C@H]1N[C@@H](N[C@@H](O)N2CCC[C@H]2[C@@H](N)O)S[C@@H]1[C@H]1CCN[C@H](C(C)(C)C(F)(F)F)C1
REMARK SMILES IDX 5 1 4 3 2 4 17 5 3 6 16 7 1 8 18 10 19 11 30 12 20 13 22 14
REMARK SMILES IDX 21 15 23 17 24 18 25 19 26 20 27 21 28 22 29 23 6 24 7 25
REMARK SMILES IDX 8 27 12 28 9 29 11 30 10 31 13 32 15 33 14 35
REMARK H PARENT 5 2 3 9 21 16 7 26 15 34 14 36 14 37
ROOT
ATOM      1  N   UNL     1       1.088  -7.306  12.309  1.00  0.00    -0.255 NA
ATOM      2  H   UNL     1       0.865  -6.301  12.324  1.00  0.00     0.129 HD
ENDROOT
BRANCH   1   3
ATOM      3  C   UNL     1       0.467  -7.841  13.422  1.00  0.00     0.185 C 
ATOM      4  C   UNL     1      -0.587  -9.385  14.605  1.00  0.00     0.066 C 
ATOM      5  C   UNL     1      -0.505  -8.409  15.593  1.00  0.00     0.069 C 
ATOM      6  N   UNL     1      -0.028  -9.052  13.388  1.00  0.00    -0.290 NA
ATOM      7  S   UNL     1       0.286  -7.003  14.921  1.00  0.00    -0.122 SA
ATOM      8  C   UNL     1      -1.197 -10.740  14.760  1.00  0.00     0.025 C 
ATOM      9  H   UNL     1       0.725  -9.719  13.168  1.00  0.00     0.125 HD
BRANCH   5  10
ATOM     10  C   UNL     1      -0.948  -8.318  17.002  1.00  0.00     0.006 C 
ATOM     11  C   UNL     1      -0.768  -7.156  17.744  1.00  0.00     0.020 C 
ATOM     12  C   UNL     1      -1.584  -9.402  17.598  1.00  0.00     0.024 C 
ATOM     13  C   UNL     1      -1.185  -7.140  19.057  1.00  0.00     0.081 C 
ATOM     14  C   UNL     1      -1.990  -9.283  18.935  1.00  0.00     0.068 C 
ATOM     15  N   UNL     1      -1.778  -8.178  19.663  1.00  0.00    -0.313 NA
ATOM     16  H   UNL     1      -1.189  -8.445  20.465  1.00  0.00     0.122 HD
BRANCH  14  17
ATOM     17  C   UNL     1      -2.763 -10.424  19.642  1.00  0.00     0.076 C 
ATOM     18  C   UNL     1      -1.804 -11.368  20.385  1.00  0.00     0.022 C 
ATOM     19  C   UNL     1      -3.785  -9.839  20.632  1.00  0.00     0.022 C 
BRANCH  17  20
ATOM     20  C   UNL     1      -3.572 -11.318  18.543  1.00  0.00     0.395 C 
ATOM     21  F   UNL     1      -2.744 -12.159  17.923  1.00  0.00    -0.170 F 
ATOM     22  F   UNL     1      -4.539 -12.052  19.081  1.00  0.00    -0.170 F 
ATOM     23  F   UNL     1      -4.146 -10.563  17.613  1.00  0.00    -0.170 F 
ENDBRANCH  17  20
ENDBRANCH  14  17
ENDBRANCH   5  10
ENDBRANCH   1   3
BRANCH   1  24
ATOM     24  C   UNL     1       2.465  -7.384  12.055  1.00  0.00     0.261 C 
BRANCH  24  25
ATOM     25  O   UNL     1       3.292  -7.210  12.937  1.00  0.00    -0.365 OA
ATOM     26  H   UNL     1       4.061  -6.703  12.573  1.00  0.00     0.214 HD
ENDBRANCH  24  25
BRANCH  24  27
ATOM     27  N   UNL     1       2.857  -7.668  10.760  1.00  0.00    -0.259 NA
ATOM     28  C   UNL     1       2.104  -8.650   9.963  1.00  0.00     0.104 C 
ATOM     29  C   UNL     1       3.983  -7.084  10.016  1.00  0.00     0.089 C 
ATOM     30  C   UNL     1       2.781  -8.597   8.584  1.00  0.00     0.025 C 
ATOM     31  C   UNL     1       4.153  -8.019   8.839  1.00  0.00     0.017 C 
BRANCH  28  32
ATOM     32  C   UNL     1       2.115 -10.059  10.559  1.00  0.00     0.197 C 
BRANCH  32  33
ATOM     33  O   UNL     1       1.174 -10.446  11.258  1.00  0.00    -0.377 OA
ATOM     34  H   UNL     1       1.321 -10.162  12.195  1.00  0.00     0.212 HD
ENDBRANCH  32  33
BRANCH  32  35
ATOM     35  N   UNL     1       3.199 -10.786  10.344  1.00  0.00    -0.305 NA
ATOM     36  H   UNL     1       4.024 -10.170  10.308  1.00  0.00     0.121 HD
ATOM     37  H   UNL     1       3.313 -11.468  11.108  1.00  0.00     0.121 HD
ENDBRANCH  32  35
ENDBRANCH  28  32
ENDBRANCH  24  27
ENDBRANCH   1  24
TORSDOF 10
ENDMDL
MODEL 19
REMARK VINA RESULT:    -7.253      1.918      2.880
REMARK INTER + INTRA:         -12.034
REMARK INTER:                 -10.497
REMARK INTRA:                  -1.536
REMARK UNBOUND:                -1.177
REMARK SMILES C[C@H]1N[C@@H](N[C@@H](O)N2CCC[C@H]2[C@@H](N)O)S[C@@H]1[C@H]1CCN[C@H](C(C)(C)C(F)(F)F)C1
REMARK SMILES IDX 5 1 4 3 2 4 17 5 3 6 16 7 1 8 18 10 19 11 30 12 20 13 22 14
REMARK SMILES IDX 21 15 23 17 24 18 25 19 26 20 27 21 28 22 29 23 6 24 7 25
REMARK SMILES IDX 8 27 12 28 9 29 11 30 10 31 13 32 15 33 14 35
REMARK H PARENT 5 2 3 9 21 16 7 26 15 34 14 36 14 37
ROOT
ATOM      1  N   UNL     1       0.767  -6.125  14.940  1.00  0.00    -0.255 NA
ATOM      2  H   UNL     1       0.554  -5.390  15.629  1.00  0.00     0.129 HD
ENDROOT
BRANCH   1   3
ATOM      3  C   UNL     1       0.072  -7.243  15.360  1.00  0.00     0.185 C 
ATOM      4  C   UNL     1      -0.712  -9.307  15.228  1.00  0.00     0.066 C 
ATOM      5  C   UNL     1      -1.221  -8.989  16.483  1.00  0.00     0.069 C 
ATOM      6  N   UNL     1       0.021  -8.314  14.611  1.00  0.00    -0.290 NA
ATOM      7  S   UNL     1      -0.771  -7.344  16.865  1.00  0.00    -0.122 SA
ATOM      8  C   UNL     1      -0.872 -10.615  14.523  1.00  0.00     0.025 C 
ATOM      9  H   UNL     1       0.978  -8.655  14.443  1.00  0.00     0.125 HD
BRANCH   5  10
ATOM     10  C   UNL     1      -2.036  -9.709  17.486  1.00  0.00     0.006 C 
ATOM     11  C   UNL     1      -2.998 -10.638  17.105  1.00  0.00     0.020 C 
ATOM     12  C   UNL     1      -1.826  -9.479  18.842  1.00  0.00     0.024 C 
ATOM     13  C   UNL     1      -3.738 -11.262  18.085  1.00  0.00     0.081 C 
ATOM     14  C   UNL     1      -2.617 -10.178  19.766  1.00  0.00     0.068 C 
ATOM     15  N   UNL     1      -3.572 -11.042  19.397  1.00  0.00    -0.313 NA
ATOM     16  H   UNL     1      -4.467 -10.688  19.766  1.00  0.00     0.122 HD
BRANCH  14  17
ATOM     17  C   UNL     1      -2.392 -10.023  21.290  1.00  0.00     0.076 C 
ATOM     18  C   UNL     1      -2.102  -8.560  21.664  1.00  0.00     0.022 C 
ATOM     19  C   UNL     1      -3.628 -10.519  22.061  1.00  0.00     0.022 C 
BRANCH  17  20
ATOM     20  C   UNL     1      -1.107 -10.911  21.761  1.00  0.00     0.395 C 
ATOM     21  F   UNL     1      -1.066 -12.065  21.096  1.00  0.00    -0.170 F 
ATOM     22  F   UNL     1       0.052 -10.299  21.549  1.00  0.00    -0.170 F 
ATOM     23  F   UNL     1      -1.149 -11.197  23.057  1.00  0.00    -0.170 F 
ENDBRANCH  17  20
ENDBRANCH  14  17
ENDBRANCH   5  10
ENDBRANCH   1   3
BRANCH   1  24
ATOM     24  C   UNL     1       2.157  -6.078  14.756  1.00  0.00     0.261 C 
BRANCH  24  25
ATOM     25  O   UNL     1       2.923  -6.689  15.486  1.00  0.00    -0.365 OA
ATOM     26  H   UNL     1       2.566  -6.692  16.410  1.00  0.00     0.214 HD
ENDBRANCH  24  25
BRANCH  24  27
ATOM     27  N   UNL     1       2.634  -5.310  13.710  1.00  0.00    -0.259 NA
ATOM     28  C   UNL     1       1.985  -5.381  12.390  1.00  0.00     0.104 C 
ATOM     29  C   UNL     1       3.761  -4.365  13.733  1.00  0.00     0.089 C 
ATOM     30  C   UNL     1       2.730  -4.324  11.560  1.00  0.00     0.025 C 
ATOM     31  C   UNL     1       4.050  -4.123  12.267  1.00  0.00     0.017 C 
BRANCH  28  32
ATOM     32  C   UNL     1       2.050  -6.770  11.751  1.00  0.00     0.197 C 
BRANCH  32  33
ATOM     33  O   UNL     1       3.072  -7.138  11.165  1.00  0.00    -0.377 OA
ATOM     34  H   UNL     1       3.574  -7.766  11.741  1.00  0.00     0.212 HD
ENDBRANCH  32  33
BRANCH  32  35
ATOM     35  N   UNL     1       0.947  -7.499  11.801  1.00  0.00    -0.305 NA
ATOM     36  H   UNL     1       0.250  -7.026  12.394  1.00  0.00     0.121 HD
ATOM     37  H   UNL     1       0.567  -7.613  10.851  1.00  0.00     0.121 HD
ENDBRANCH  32  35
ENDBRANCH  28  32
ENDBRANCH  24  27
ENDBRANCH   1  24
TORSDOF 10
ENDMDL
MODEL 20
REMARK VINA RESULT:    -7.182      2.997      4.044
REMARK INTER + INTRA:         -11.928
REMARK INTER:                 -10.797
REMARK INTRA:                  -1.131
REMARK UNBOUND:                -1.177
REMARK SMILES C[C@H]1N[C@@H](N[C@@H](O)N2CCC[C@H]2[C@@H](N)O)S[C@@H]1[C@H]1CCN[C@H](C(C)(C)C(F)(F)F)C1
REMARK SMILES IDX 5 1 4 3 2 4 17 5 3 6 16 7 1 8 18 10 19 11 30 12 20 13 22 14
REMARK SMILES IDX 21 15 23 17 24 18 25 19 26 20 27 21 28 22 29 23 6 24 7 25
REMARK SMILES IDX 8 27 12 28 9 29 11 30 10 31 13 32 15 33 14 35
REMARK H PARENT 5 2 3 9 21 16 7 26 15 34 14 36 14 37
ROOT
ATOM      1  N   UNL     1      -0.078  -5.777  15.792  1.00  0.00    -0.255 NA
ATOM      2  H   UNL     1      -0.448  -5.227  16.580  1.00  0.00     0.129 HD
ENDROOT
BRANCH   1   3
ATOM      3  C   UNL     1      -0.594  -7.049  15.952  1.00  0.00     0.185 C 
ATOM      4  C   UNL     1      -0.830  -9.207  15.523  1.00  0.00     0.066 C 
ATOM      5  C   UNL     1      -1.721  -9.124  16.588  1.00  0.00     0.069 C 
ATOM      6  N   UNL     1      -0.197  -8.029  15.181  1.00  0.00    -0.290 NA
ATOM      7  S   UNL     1      -1.773  -7.468  17.144  1.00  0.00    -0.122 SA
ATOM      8  C   UNL     1      -0.495 -10.443  14.754  1.00  0.00     0.025 C 
ATOM      9  H   UNL     1       0.820  -8.149  15.285  1.00  0.00     0.125 HD
BRANCH   5  10
ATOM     10  C   UNL     1      -2.598 -10.091  17.285  1.00  0.00     0.006 C 
ATOM     11  C   UNL     1      -3.238 -11.116  16.596  1.00  0.00     0.020 C 
ATOM     12  C   UNL     1      -2.772  -9.999  18.662  1.00  0.00     0.024 C 
ATOM     13  C   UNL     1      -4.057 -11.973  17.299  1.00  0.00     0.081 C 
ATOM     14  C   UNL     1      -3.610 -10.931  19.292  1.00  0.00     0.068 C 
ATOM     15  N   UNL     1      -4.260 -11.892  18.621  1.00  0.00    -0.313 NA
ATOM     16  H   UNL     1      -5.268 -11.744  18.770  1.00  0.00     0.122 HD
BRANCH  14  17
ATOM     17  C   UNL     1      -3.796 -10.930  20.829  1.00  0.00     0.076 C 
ATOM     18  C   UNL     1      -4.500  -9.649  21.304  1.00  0.00     0.022 C 
ATOM     19  C   UNL     1      -4.610 -12.161  21.265  1.00  0.00     0.022 C 
BRANCH  17  20
ATOM     20  C   UNL     1      -2.343 -10.990  21.570  1.00  0.00     0.395 C 
ATOM     21  F   UNL     1      -2.483 -11.360  22.843  1.00  0.00    -0.170 F 
ATOM     22  F   UNL     1      -1.507 -11.853  21.004  1.00  0.00    -0.170 F 
ATOM     23  F   UNL     1      -1.731  -9.811  21.560  1.00  0.00    -0.170 F 
ENDBRANCH  17  20
ENDBRANCH  14  17
ENDBRANCH   5  10
ENDBRANCH   1   3
BRANCH   1  24
ATOM     24  C   UNL     1       1.291  -5.479  15.731  1.00  0.00     0.261 C 
BRANCH  24  25
ATOM     25  O   UNL     1       1.926  -5.584  14.693  1.00  0.00    -0.365 OA
ATOM     26  H   UNL     1       2.339  -4.713  14.468  1.00  0.00     0.214 HD
ENDBRANCH  24  25
BRANCH  24  27
ATOM     27  N   UNL     1       1.901  -5.057  16.897  1.00  0.00    -0.259 NA
ATOM     28  C   UNL     1       1.129  -4.307  17.901  1.00  0.00     0.104 C 
ATOM     29  C   UNL     1       3.297  -5.273  17.308  1.00  0.00     0.089 C 
ATOM     30  C   UNL     1       2.119  -4.124  19.062  1.00  0.00     0.025 C 
ATOM     31  C   UNL     1       3.488  -4.293  18.445  1.00  0.00     0.017 C 
BRANCH  28  32
ATOM     32  C   UNL     1       0.589  -2.972  17.386  1.00  0.00     0.197 C 
BRANCH  32  33
ATOM     33  O   UNL     1      -0.614  -2.840  17.140  1.00  0.00    -0.377 OA
ATOM     34  H   UNL     1      -0.728  -2.223  16.374  1.00  0.00     0.212 HD
ENDBRANCH  32  33
BRANCH  32  35
ATOM     35  N   UNL     1       1.479  -2.020  17.156  1.00  0.00    -0.305 NA
ATOM     36  H   UNL     1       1.336  -1.637  16.212  1.00  0.00     0.121 HD
ATOM     37  H   UNL     1       1.367  -1.269  17.852  1.00  0.00     0.121 HD
ENDBRANCH  32  35
ENDBRANCH  28  32
ENDBRANCH  24  27
ENDBRANCH   1  24
TORSDOF 10
ENDMDL
