REMARK SMILES Cc1ccc(NC(=O)c2ccc(CN3CCN(C)CC3)cc2)cc1Nc1nc(-c2cccnc2)cs1
REMARK SMILES IDX 6 1 7 2 8 3 5 5 2 6 3 7 24 8 4 9 23 10 1 11 25 12 26 14
REMARK SMILES IDX 27 15 36 16 28 17 35 18 29 19 30 20 34 21 31 22 33 23 32 24
REMARK SMILES IDX 9 25 10 26 22 27 11 28 21 29 12 30 13 31 14 32 15 33 20 34
REMARK SMILES IDX 16 35 19 36 17 37 18 38
REMARK H PARENT 6 4 25 13
ROOT
ATOM      1  N   UNL     1       0.399   0.395   1.312  1.00  0.00    -0.322 N 
ATOM      2  C   UNL     1       0.048  -0.483   0.302  1.00  0.00     0.255 C 
ATOM      3  O   UNL     1       0.763  -1.330  -0.219  1.00  0.00    -0.269 OA
ATOM      4  H   UNL     1      -0.351   0.928   1.730  1.00  0.00     0.170 HD
ENDROOT
BRANCH   1   5
ATOM      5  C   UNL     1       1.666   0.542   1.915  1.00  0.00     0.043 A 
ATOM      6  C   UNL     1       4.121   0.925   3.258  1.00  0.00    -0.027 A 
ATOM      7  C   UNL     1       2.965   1.595   3.678  1.00  0.00     0.008 A 
ATOM      8  C   UNL     1       4.052   0.080   2.135  1.00  0.00     0.045 A 
ATOM      9  C   UNL     1       1.751   1.403   3.014  1.00  0.00     0.026 A 
ATOM     10  C   UNL     1       2.822  -0.105   1.477  1.00  0.00     0.052 A 
ATOM     11  C   UNL     1       5.411   1.153   3.997  1.00  0.00     0.046 C 
BRANCH   8  12
ATOM     12  N   UNL     1       5.208  -0.579   1.652  1.00  0.00    -0.331 N 
ATOM     13  H   UNL     1       5.031  -1.573   1.530  1.00  0.00     0.169 HD
BRANCH  12  14
ATOM     14  C   UNL     1       5.968  -0.101   0.629  1.00  0.00     0.187 A 
ATOM     15  N   UNL     1       6.708  -0.906  -0.104  1.00  0.00    -0.220 NA
ATOM     16  S   UNL     1       6.087   1.563   0.179  1.00  0.00    -0.105 S 
ATOM     17  C   UNL     1       7.417  -0.208  -1.071  1.00  0.00     0.085 A 
ATOM     18  C   UNL     1       7.189   1.153  -1.066  1.00  0.00     0.097 A 
BRANCH  17  19
ATOM     19  C   UNL     1       8.314  -0.907  -1.986  1.00  0.00     0.019 A 
ATOM     20  C   UNL     1       9.120  -0.255  -2.925  1.00  0.00     0.013 A 
ATOM     21  C   UNL     1       8.406  -2.298  -1.943  1.00  0.00     0.121 A 
ATOM     22  C   UNL     1       9.961  -0.996  -3.759  1.00  0.00     0.021 A 
ATOM     23  N   UNL     1       9.213  -3.045  -2.741  1.00  0.00    -0.264 NA
ATOM     24  C   UNL     1       9.972  -2.374  -3.630  1.00  0.00     0.111 A 
ENDBRANCH  17  19
ENDBRANCH  12  14
ENDBRANCH   8  12
ENDBRANCH   1   5
BRANCH   2  25
ATOM     25  C   UNL     1      -1.374  -0.389  -0.132  1.00  0.00     0.040 A 
ATOM     26  C   UNL     1      -2.057  -1.568  -0.445  1.00  0.00     0.014 A 
ATOM     27  C   UNL     1      -2.027   0.845  -0.245  1.00  0.00     0.014 A 
ATOM     28  C   UNL     1      -3.396  -1.517  -0.836  1.00  0.00     0.006 A 
ATOM     29  C   UNL     1      -3.367   0.893  -0.641  1.00  0.00     0.006 A 
ATOM     30  C   UNL     1      -4.068  -0.288  -0.928  1.00  0.00    -0.034 A 
BRANCH  30  31
ATOM     31  C   UNL     1      -5.519  -0.235  -1.371  1.00  0.00     0.120 C 
BRANCH  31  32
ATOM     32  N   UNL     1      -6.395  -1.093  -0.552  1.00  0.00    -0.297 NA
ATOM     33  C   UNL     1      -7.680  -1.322  -1.238  1.00  0.00     0.100 C 
ATOM     34  C   UNL     1      -6.651  -0.497   0.782  1.00  0.00     0.100 C 
ATOM     35  C   UNL     1      -8.608  -0.082  -1.357  1.00  0.00     0.099 C 
ATOM     36  C   UNL     1      -7.973   0.304   0.939  1.00  0.00     0.099 C 
ATOM     37  N   UNL     1      -8.391   0.941  -0.316  1.00  0.00    -0.304 NA
ATOM     38  C   UNL     1      -9.575   1.774  -0.135  1.00  0.00     0.105 C 
ENDBRANCH  31  32
ENDBRANCH  30  31
ENDBRANCH   2  25
TORSDOF 7
