REMARK SMILES CCCNC(=O)c1nnc2c(-c3c(F)cccc3OC)cccc2c1N
REMARK SMILES IDX 7 1 8 2 9 3 10 4 24 5 25 6 23 7 22 8 21 9 11 10 5 11 4 12
REMARK SMILES IDX 6 13 3 15 2 16 1 17 26 18 12 21 18 22 13 23 17 24 15 25
REMARK SMILES IDX 16 26 14 27 19 28 20 29
REMARK H PARENT 4 14 26 19 26 20
ROOT
ATOM      1  C   UNL     1       1.727   0.272   0.855  1.00  0.00     0.174 A 
ATOM      2  N   UNL     1       0.959   0.798  -0.125  1.00  0.00    -0.142 NA
ATOM      3  N   UNL     1      -0.401   0.769   0.002  1.00  0.00    -0.149 NA
ATOM      4  C   UNL     1      -1.003   0.201   1.068  1.00  0.00     0.103 A 
ATOM      5  C   UNL     1      -0.226  -0.369   2.104  1.00  0.00     0.028 A 
ATOM      6  C   UNL     1       1.190  -0.294   2.017  1.00  0.00     0.075 A 
ATOM      7  C   UNL     1      -0.894  -0.999   3.183  1.00  0.00     0.013 A 
ATOM      8  C   UNL     1      -2.282  -1.043   3.256  1.00  0.00     0.002 A 
ATOM      9  C   UNL     1      -3.036  -0.462   2.249  1.00  0.00     0.011 A 
ATOM     10  C   UNL     1      -2.408   0.158   1.154  1.00  0.00     0.017 A 
ENDROOT
BRANCH   1  11
ATOM     11  C   UNL     1       3.204   0.395   0.625  1.00  0.00     0.273 C 
ATOM     12  N   UNL     1       3.565   0.890  -0.614  1.00  0.00    -0.351 N 
ATOM     13  O   UNL     1       4.018   0.085   1.491  1.00  0.00    -0.267 OA
ATOM     14  H   UNL     1       2.814   1.119  -1.260  1.00  0.00     0.163 HD
BRANCH  12  15
ATOM     15  C   UNL     1       4.939   1.056  -1.034  1.00  0.00     0.116 C 
BRANCH  15  16
ATOM     16  C   UNL     1       5.403  -0.068  -1.958  1.00  0.00     0.018 C 
ATOM     17  C   UNL     1       5.518  -1.412  -1.253  1.00  0.00     0.006 C 
ENDBRANCH  15  16
ENDBRANCH  12  15
ENDBRANCH   1  11
BRANCH   6  18
ATOM     18  N   UNL     1       2.006  -0.932   2.990  1.00  0.00    -0.396 N 
ATOM     19  H   UNL     1       2.998  -0.679   2.881  1.00  0.00     0.156 HD
ATOM     20  H   UNL     1       1.696  -0.790   3.946  1.00  0.00     0.156 HD
ENDBRANCH   6  18
BRANCH  10  21
ATOM     21  C   UNL     1      -3.248   0.756   0.099  1.00  0.00     0.062 A 
ATOM     22  C   UNL     1      -3.771  -0.013  -0.963  1.00  0.00     0.129 A 
ATOM     23  C   UNL     1      -3.534   2.129   0.130  1.00  0.00     0.134 A 
ATOM     24  C   UNL     1      -4.561   0.601  -1.946  1.00  0.00     0.047 A 
ATOM     25  C   UNL     1      -4.313   2.737  -0.850  1.00  0.00     0.040 A 
ATOM     26  C   UNL     1      -4.828   1.972  -1.889  1.00  0.00     0.007 A 
ATOM     27  F   UNL     1      -3.061   2.892   1.128  1.00  0.00    -0.206 F 
BRANCH  22  28
ATOM     28  O   UNL     1      -3.471  -1.353  -0.942  1.00  0.00    -0.496 OA
ATOM     29  C   UNL     1      -3.747  -2.102  -2.118  1.00  0.00     0.278 C 
ENDBRANCH  22  28
ENDBRANCH  10  21
TORSDOF 6
