MODEL 1
REMARK VINA RESULT:    -1.041      0.000      0.000
REMARK INTER + INTRA:          -1.041
REMARK INTER:                  -1.041
REMARK INTRA:                   0.000
REMARK UNBOUND:                 0.000
REMARK SMILES C
REMARK SMILES IDX 1 1
REMARK H PARENT
ROOT
ATOM      1  C   UNL     1     159.341 160.079 140.854  1.00  0.00     0.000 C 
ENDROOT
TORSDOF 0
ENDMDL
MODEL 2
REMARK VINA RESULT:    -0.946      8.941      8.941
REMARK INTER + INTRA:          -0.946
REMARK INTER:                  -0.946
REMARK INTRA:                   0.000
REMARK UNBOUND:                 0.000
REMARK SMILES C
REMARK SMILES IDX 1 1
REMARK H PARENT
ROOT
ATOM      1  C   UNL     1     158.209 163.490 149.042  1.00  0.00     0.000 C 
ENDROOT
TORSDOF 0
ENDMDL
MODEL 3
REMARK VINA RESULT:    -0.943     13.331     13.331
REMARK INTER + INTRA:          -0.943
REMARK INTER:                  -0.943
REMARK INTRA:                   0.000
REMARK UNBOUND:                 0.000
REMARK SMILES C
REMARK SMILES IDX 1 1
REMARK H PARENT
ROOT
ATOM      1  C   UNL     1     160.095 173.374 140.207  1.00  0.00     0.000 C 
ENDROOT
TORSDOF 0
ENDMDL
MODEL 4
REMARK VINA RESULT:    -0.902     18.099     18.099
REMARK INTER + INTRA:          -0.902
REMARK INTER:                  -0.902
REMARK INTRA:                   0.000
REMARK UNBOUND:                 0.000
REMARK SMILES C
REMARK SMILES IDX 1 1
REMARK H PARENT
ROOT
ATOM      1  C   UNL     1     143.946 155.992 149.450  1.00  0.00     0.000 C 
ENDROOT
TORSDOF 0
ENDMDL
MODEL 5
REMARK VINA RESULT:    -0.864     11.414     11.414
REMARK INTER + INTRA:          -0.864
REMARK INTER:                  -0.864
REMARK INTRA:                   0.000
REMARK UNBOUND:                 0.000
REMARK SMILES C
REMARK SMILES IDX 1 1
REMARK H PARENT
ROOT
ATOM      1  C   UNL     1     151.720 166.506 146.415  1.00  0.00     0.000 C 
ENDROOT
TORSDOF 0
ENDMDL
MODEL 6
REMARK VINA RESULT:    -0.861      8.885      8.885
REMARK INTER + INTRA:          -0.861
REMARK INTER:                  -0.861
REMARK INTRA:                   0.000
REMARK UNBOUND:                 0.000
REMARK SMILES C
REMARK SMILES IDX 1 1
REMARK H PARENT
ROOT
ATOM      1  C   UNL     1     150.566 161.440 141.153  1.00  0.00     0.000 C 
ENDROOT
TORSDOF 0
ENDMDL
MODEL 7
REMARK VINA RESULT:    -0.796     15.581     15.581
REMARK INTER + INTRA:          -0.796
REMARK INTER:                  -0.796
REMARK INTRA:                   0.000
REMARK UNBOUND:                 0.000
REMARK SMILES C
REMARK SMILES IDX 1 1
REMARK H PARENT
ROOT
ATOM      1  C   UNL     1     153.688 173.690 145.910  1.00  0.00     0.000 C 
ENDROOT
TORSDOF 0
ENDMDL
MODEL 8
REMARK VINA RESULT:    -0.768     15.801     15.801
REMARK INTER + INTRA:          -0.768
REMARK INTER:                  -0.768
REMARK INTRA:                   0.000
REMARK UNBOUND:                 0.000
REMARK SMILES C
REMARK SMILES IDX 1 1
REMARK H PARENT
ROOT
ATOM      1  C   UNL     1     153.465 154.550 154.440  1.00  0.00     0.000 C 
ENDROOT
TORSDOF 0
ENDMDL
MODEL 9
REMARK VINA RESULT:    -0.768     21.482     21.482
REMARK INTER + INTRA:          -0.768
REMARK INTER:                  -0.768
REMARK INTRA:                   0.000
REMARK UNBOUND:                 0.000
REMARK SMILES C
REMARK SMILES IDX 1 1
REMARK H PARENT
ROOT
ATOM      1  C   UNL     1     154.110 171.519 158.269  1.00  0.00     0.000 C 
ENDROOT
TORSDOF 0
ENDMDL
MODEL 10
REMARK VINA RESULT:    -0.757     20.597     20.597
REMARK INTER + INTRA:          -0.757
REMARK INTER:                  -0.757
REMARK INTRA:                   0.000
REMARK UNBOUND:                 0.000
REMARK SMILES C
REMARK SMILES IDX 1 1
REMARK H PARENT
ROOT
ATOM      1  C   UNL     1     149.251 168.346 156.795  1.00  0.00     0.000 C 
ENDROOT
TORSDOF 0
ENDMDL
MODEL 11
REMARK VINA RESULT:    -0.753     12.151     12.151
REMARK INTER + INTRA:          -0.753
REMARK INTER:                  -0.753
REMARK INTRA:                   0.000
REMARK UNBOUND:                 0.000
REMARK SMILES C
REMARK SMILES IDX 1 1
REMARK H PARENT
ROOT
ATOM      1  C   UNL     1     152.019 167.559 147.026  1.00  0.00     0.000 C 
ENDROOT
TORSDOF 0
ENDMDL
MODEL 12
REMARK VINA RESULT:    -0.745     17.614     17.614
REMARK INTER + INTRA:          -0.745
REMARK INTER:                  -0.745
REMARK INTRA:                   0.000
REMARK UNBOUND:                 0.000
REMARK SMILES C
REMARK SMILES IDX 1 1
REMARK H PARENT
ROOT
ATOM      1  C   UNL     1     144.592 155.844 149.503  1.00  0.00     0.000 C 
ENDROOT
TORSDOF 0
ENDMDL
MODEL 13
REMARK VINA RESULT:    -0.728     16.424     16.424
REMARK INTER + INTRA:          -0.728
REMARK INTER:                  -0.728
REMARK INTRA:                   0.000
REMARK UNBOUND:                 0.000
REMARK SMILES C
REMARK SMILES IDX 1 1
REMARK H PARENT
ROOT
ATOM      1  C   UNL     1     159.912 176.474 140.044  1.00  0.00     0.000 C 
ENDROOT
TORSDOF 0
ENDMDL
MODEL 14
REMARK VINA RESULT:    -0.722     29.279     29.279
REMARK INTER + INTRA:          -0.722
REMARK INTER:                  -0.722
REMARK INTRA:                   0.000
REMARK UNBOUND:                 0.000
REMARK SMILES C
REMARK SMILES IDX 1 1
REMARK H PARENT
ROOT
ATOM      1  C   UNL     1     144.833 178.013 158.887  1.00  0.00     0.000 C 
ENDROOT
TORSDOF 0
ENDMDL
MODEL 15
REMARK VINA RESULT:    -0.705     21.234     21.234
REMARK INTER + INTRA:          -0.705
REMARK INTER:                  -0.705
REMARK INTRA:                   0.000
REMARK UNBOUND:                 0.000
REMARK SMILES C
REMARK SMILES IDX 1 1
REMARK H PARENT
ROOT
ATOM      1  C   UNL     1     146.825 169.298 155.319  1.00  0.00     0.000 C 
ENDROOT
TORSDOF 0
ENDMDL
MODEL 16
REMARK VINA RESULT:    -0.703     16.639     16.639
REMARK INTER + INTRA:          -0.703
REMARK INTER:                  -0.703
REMARK INTRA:                   0.000
REMARK UNBOUND:                 0.000
REMARK SMILES C
REMARK SMILES IDX 1 1
REMARK H PARENT
ROOT
ATOM      1  C   UNL     1     145.751 153.755 148.076  1.00  0.00     0.000 C 
ENDROOT
TORSDOF 0
ENDMDL
MODEL 17
REMARK VINA RESULT:    -0.696     14.657     14.657
REMARK INTER + INTRA:          -0.696
REMARK INTER:                  -0.696
REMARK INTRA:                   0.000
REMARK UNBOUND:                 0.000
REMARK SMILES C
REMARK SMILES IDX 1 1
REMARK H PARENT
ROOT
ATOM      1  C   UNL     1     155.163 172.546 147.331  1.00  0.00     0.000 C 
ENDROOT
TORSDOF 0
ENDMDL
MODEL 18
REMARK VINA RESULT:    -0.689     13.306     13.306
REMARK INTER + INTRA:          -0.689
REMARK INTER:                  -0.689
REMARK INTRA:                   0.000
REMARK UNBOUND:                 0.000
REMARK SMILES C
REMARK SMILES IDX 1 1
REMARK H PARENT
ROOT
ATOM      1  C   UNL     1     146.438 159.884 144.100  1.00  0.00     0.000 C 
ENDROOT
TORSDOF 0
ENDMDL
MODEL 19
REMARK VINA RESULT:    -0.685     16.870     16.870
REMARK INTER + INTRA:          -0.685
REMARK INTER:                  -0.685
REMARK INTRA:                   0.000
REMARK UNBOUND:                 0.000
REMARK SMILES C
REMARK SMILES IDX 1 1
REMARK H PARENT
ROOT
ATOM      1  C   UNL     1     147.688 154.496 151.701  1.00  0.00     0.000 C 
ENDROOT
TORSDOF 0
ENDMDL
MODEL 20
REMARK VINA RESULT:    -0.670     14.524     14.524
REMARK INTER + INTRA:          -0.670
REMARK INTER:                  -0.670
REMARK INTRA:                   0.000
REMARK UNBOUND:                 0.000
REMARK SMILES C
REMARK SMILES IDX 1 1
REMARK H PARENT
ROOT
ATOM      1  C   UNL     1     153.245 167.240 151.923  1.00  0.00     0.000 C 
ENDROOT
TORSDOF 0
ENDMDL
