MODEL 1
REMARK VINA RESULT:   -13.448      0.000      0.000
REMARK INTER + INTRA:         -16.376
REMARK INTER:                 -16.199
REMARK INTRA:                  -0.177
REMARK UNBOUND:                -0.177
REMARK SMILES CC1(C)CCC(C)(C)c2cc(NC(=O)c3ccc(C(=O)O)cc3)ccc21
REMARK SMILES IDX 15 1 16 2 23 3 17 4 22 5 18 6 13 7 14 8 12 9 11 11 10 12
REMARK SMILES IDX 24 13 9 14 25 15 6 16 26 17 5 18 2 19 4 20 7 21 8 22 1 23
REMARK SMILES IDX 3 24 19 25 20 26 21 27
REMARK H PARENT 12 10 21 28
ROOT
ATOM      1  C   UNL     1      40.674  23.162 102.013  1.00  0.00     0.040 A 
ATOM      2  C   UNL     1      39.787  22.575 102.891  1.00  0.00     0.015 A 
ATOM      3  C   UNL     1      40.575  24.487 101.642  1.00  0.00     0.015 A 
ATOM      4  C   UNL     1      38.754  23.347 103.423  1.00  0.00     0.016 A 
ATOM      5  C   UNL     1      39.543  25.259 102.174  1.00  0.00     0.016 A 
ATOM      6  C   UNL     1      38.632  24.690 103.064  1.00  0.00     0.059 A 
ENDROOT
BRANCH   1   7
ATOM      7  C   UNL     1      41.774  22.338 101.447  1.00  0.00     0.255 C 
ATOM      8  O   UNL     1      41.673  21.119 101.527  1.00  0.00    -0.269 OA
ATOM      9  N   UNL     1      42.816  23.059 100.849  1.00  0.00    -0.322 N 
ATOM     10  H   UNL     1      42.789  24.073 100.896  1.00  0.00     0.170 HD
BRANCH   9  11
ATOM     11  C   UNL     1      43.957  22.557 100.221  1.00  0.00     0.041 A 
ATOM     12  C   UNL     1      43.898  21.353  99.521  1.00  0.00     0.030 A 
ATOM     13  C   UNL     1      45.153  23.251 100.293  1.00  0.00     0.026 A 
ATOM     14  C   UNL     1      45.033  20.810  98.878  1.00  0.00    -0.037 A 
ATOM     15  C   UNL     1      46.283  22.748  99.651  1.00  0.00     0.007 A 
ATOM     16  C   UNL     1      44.899  19.477  98.129  1.00  0.00    -0.010 C 
ATOM     17  C   UNL     1      46.247  21.540  98.917  1.00  0.00    -0.038 A 
ATOM     18  C   UNL     1      46.280  18.877  97.785  1.00  0.00     0.012 C 
ATOM     19  C   UNL     1      47.526  21.046  98.230  1.00  0.00    -0.010 C 
ATOM     20  C   UNL     1      47.229  19.919  97.217  1.00  0.00     0.012 C 
ATOM     21  C   UNL     1      44.093  19.716  96.833  1.00  0.00     0.016 C 
ATOM     22  C   UNL     1      44.159  18.413  98.974  1.00  0.00     0.016 C 
ATOM     23  C   UNL     1      48.503  20.535  99.312  1.00  0.00     0.016 C 
ATOM     24  C   UNL     1      48.227  22.174  97.436  1.00  0.00     0.016 C 
ENDBRANCH   9  11
ENDBRANCH   1   7
BRANCH   6  25
ATOM     25  C   UNL     1      37.556  25.496 103.618  1.00  0.00     0.335 C 
ATOM     26  O   UNL     1      36.498  25.057 104.082  1.00  0.00    -0.246 OA
BRANCH  25  27
ATOM     27  O   UNL     1      37.830  26.828 103.578  1.00  0.00    -0.478 OA
ATOM     28  H   UNL     1      37.965  27.201 104.476  1.00  0.00     0.297 HD
ENDBRANCH  25  27
ENDBRANCH   6  25
TORSDOF 4
ENDMDL
MODEL 2
REMARK VINA RESULT:   -12.482      1.250      2.762
REMARK INTER + INTRA:         -15.213
REMARK INTER:                 -15.112
REMARK INTRA:                  -0.101
REMARK UNBOUND:                -0.177
REMARK SMILES CC1(C)CCC(C)(C)c2cc(NC(=O)c3ccc(C(=O)O)cc3)ccc21
REMARK SMILES IDX 15 1 16 2 23 3 17 4 22 5 18 6 13 7 14 8 12 9 11 11 10 12
REMARK SMILES IDX 24 13 9 14 25 15 6 16 26 17 5 18 2 19 4 20 7 21 8 22 1 23
REMARK SMILES IDX 3 24 19 25 20 26 21 27
REMARK H PARENT 12 10 21 28
ROOT
ATOM      1  C   UNL     1      40.916  23.461 101.865  1.00  0.00     0.040 A 
ATOM      2  C   UNL     1      40.124  22.761 102.751  1.00  0.00     0.015 A 
ATOM      3  C   UNL     1      40.639  24.762 101.498  1.00  0.00     0.015 A 
ATOM      4  C   UNL     1      39.004  23.389 103.295  1.00  0.00     0.016 A 
ATOM      5  C   UNL     1      39.519  25.390 102.042  1.00  0.00     0.016 A 
ATOM      6  C   UNL     1      38.701  24.704 102.940  1.00  0.00     0.059 A 
ENDROOT
BRANCH   1   7
ATOM      7  C   UNL     1      42.109  22.791 101.285  1.00  0.00     0.255 C 
ATOM      8  O   UNL     1      43.195  23.343 101.419  1.00  0.00    -0.269 OA
ATOM      9  N   UNL     1      41.862  21.563 100.657  1.00  0.00    -0.322 N 
ATOM     10  H   UNL     1      40.899  21.246 100.582  1.00  0.00     0.170 HD
BRANCH   9  11
ATOM     11  C   UNL     1      42.783  20.706 100.052  1.00  0.00     0.041 A 
ATOM     12  C   UNL     1      43.960  21.217  99.509  1.00  0.00     0.030 A 
ATOM     13  C   UNL     1      42.529  19.347  99.985  1.00  0.00     0.026 A 
ATOM     14  C   UNL     1      44.913  20.382  98.882  1.00  0.00    -0.037 A 
ATOM     15  C   UNL     1      43.461  18.499  99.391  1.00  0.00     0.007 A 
ATOM     16  C   UNL     1      46.186  21.011  98.299  1.00  0.00    -0.010 C 
ATOM     17  C   UNL     1      44.673  18.986  98.850  1.00  0.00    -0.038 A 
ATOM     18  C   UNL     1      46.935  20.026  97.375  1.00  0.00     0.012 C 
ATOM     19  C   UNL     1      45.657  17.997  98.214  1.00  0.00    -0.010 C 
ATOM     20  C   UNL     1      47.043  18.640  97.986  1.00  0.00     0.012 C 
ATOM     21  C   UNL     1      47.105  21.438  99.466  1.00  0.00     0.016 C 
ATOM     22  C   UNL     1      45.873  22.261  97.444  1.00  0.00     0.016 C 
ATOM     23  C   UNL     1      45.075  17.515  96.867  1.00  0.00     0.016 C 
ATOM     24  C   UNL     1      45.892  16.759  99.112  1.00  0.00     0.016 C 
ENDBRANCH   9  11
ENDBRANCH   1   7
BRANCH   6  25
ATOM     25  C   UNL     1      37.534  25.360 103.508  1.00  0.00     0.335 C 
ATOM     26  O   UNL     1      36.540  24.784 103.965  1.00  0.00    -0.246 OA
BRANCH  25  27
ATOM     27  O   UNL     1      37.640  26.717 103.491  1.00  0.00    -0.478 OA
ATOM     28  H   UNL     1      38.406  27.030 104.019  1.00  0.00     0.297 HD
ENDBRANCH  25  27
ENDBRANCH   6  25
TORSDOF 4
ENDMDL
MODEL 3
REMARK VINA RESULT:   -12.444      1.709      3.019
REMARK INTER + INTRA:         -15.167
REMARK INTER:                 -14.739
REMARK INTRA:                  -0.428
REMARK UNBOUND:                -0.177
REMARK SMILES CC1(C)CCC(C)(C)c2cc(NC(=O)c3ccc(C(=O)O)cc3)ccc21
REMARK SMILES IDX 15 1 16 2 23 3 17 4 22 5 18 6 13 7 14 8 12 9 11 11 10 12
REMARK SMILES IDX 24 13 9 14 25 15 6 16 26 17 5 18 2 19 4 20 7 21 8 22 1 23
REMARK SMILES IDX 3 24 19 25 20 26 21 27
REMARK H PARENT 12 10 21 28
ROOT
ATOM      1  C   UNL     1      41.062  23.328 101.627  1.00  0.00     0.040 A 
ATOM      2  C   UNL     1      40.290  22.849 102.664  1.00  0.00     0.015 A 
ATOM      3  C   UNL     1      40.867  24.579 101.078  1.00  0.00     0.015 A 
ATOM      4  C   UNL     1      39.276  23.658 103.177  1.00  0.00     0.016 A 
ATOM      5  C   UNL     1      39.854  25.387 101.592  1.00  0.00     0.016 A 
ATOM      6  C   UNL     1      39.058  24.927 102.641  1.00  0.00     0.059 A 
ENDROOT
BRANCH   1   7
ATOM      7  C   UNL     1      42.142  22.465 101.080  1.00  0.00     0.255 C 
ATOM      8  O   UNL     1      43.299  22.854 101.201  1.00  0.00    -0.269 OA
ATOM      9  N   UNL     1      41.715  21.266 100.496  1.00  0.00    -0.322 N 
ATOM     10  H   UNL     1      40.716  21.094 100.426  1.00  0.00     0.170 HD
BRANCH   9  11
ATOM     11  C   UNL     1      42.498  20.259  99.929  1.00  0.00     0.041 A 
ATOM     12  C   UNL     1      43.204  20.501  98.752  1.00  0.00     0.030 A 
ATOM     13  C   UNL     1      42.575  19.015 100.532  1.00  0.00     0.026 A 
ATOM     14  C   UNL     1      44.002  19.505  98.145  1.00  0.00    -0.037 A 
ATOM     15  C   UNL     1      43.370  18.021  99.965  1.00  0.00     0.007 A 
ATOM     16  C   UNL     1      44.748  19.837  96.846  1.00  0.00    -0.010 C 
ATOM     17  C   UNL     1      44.112  18.245  98.783  1.00  0.00    -0.038 A 
ATOM     18  C   UNL     1      45.283  18.563  96.156  1.00  0.00     0.012 C 
ATOM     19  C   UNL     1      44.972  17.109  98.215  1.00  0.00    -0.010 C 
ATOM     20  C   UNL     1      45.955  17.621  97.140  1.00  0.00     0.012 C 
ATOM     21  C   UNL     1      45.921  20.787  97.178  1.00  0.00     0.016 C 
ATOM     22  C   UNL     1      43.830  20.539  95.817  1.00  0.00     0.016 C 
ATOM     23  C   UNL     1      44.039  16.039  97.606  1.00  0.00     0.016 C 
ATOM     24  C   UNL     1      45.834  16.435  99.309  1.00  0.00     0.016 C 
ENDBRANCH   9  11
ENDBRANCH   1   7
BRANCH   6  25
ATOM     25  C   UNL     1      38.001  25.772 103.176  1.00  0.00     0.335 C 
ATOM     26  O   UNL     1      36.917  25.371 103.612  1.00  0.00    -0.246 OA
BRANCH  25  27
ATOM     27  O   UNL     1      38.328  27.092 103.152  1.00  0.00    -0.478 OA
ATOM     28  H   UNL     1      39.214  27.257 103.542  1.00  0.00     0.297 HD
ENDBRANCH  25  27
ENDBRANCH   6  25
TORSDOF 4
ENDMDL
MODEL 4
REMARK VINA RESULT:   -12.133      1.055      2.596
REMARK INTER + INTRA:         -14.792
REMARK INTER:                 -14.744
REMARK INTRA:                  -0.048
REMARK UNBOUND:                -0.177
REMARK SMILES CC1(C)CCC(C)(C)c2cc(NC(=O)c3ccc(C(=O)O)cc3)ccc21
REMARK SMILES IDX 15 1 16 2 23 3 17 4 22 5 18 6 13 7 14 8 12 9 11 11 10 12
REMARK SMILES IDX 24 13 9 14 25 15 6 16 26 17 5 18 2 19 4 20 7 21 8 22 1 23
REMARK SMILES IDX 3 24 19 25 20 26 21 27
REMARK H PARENT 12 10 21 28
ROOT
ATOM      1  C   UNL     1      40.620  22.702 101.741  1.00  0.00     0.040 A 
ATOM      2  C   UNL     1      39.659  22.395 102.681  1.00  0.00     0.015 A 
ATOM      3  C   UNL     1      40.831  23.990 101.297  1.00  0.00     0.015 A 
ATOM      4  C   UNL     1      38.873  23.423 103.201  1.00  0.00     0.016 A 
ATOM      5  C   UNL     1      40.045  25.019 101.817  1.00  0.00     0.016 A 
ATOM      6  C   UNL     1      39.066  24.735 102.769  1.00  0.00     0.059 A 
ENDROOT
BRANCH   1   7
ATOM      7  C   UNL     1      41.457  21.605 101.188  1.00  0.00     0.255 C 
ATOM      8  O   UNL     1      41.136  20.452 101.453  1.00  0.00    -0.269 OA
ATOM      9  N   UNL     1      42.529  22.016 100.385  1.00  0.00    -0.322 N 
ATOM     10  H   UNL     1      42.703  23.012 100.287  1.00  0.00     0.170 HD
BRANCH   9  11
ATOM     11  C   UNL     1      43.459  21.216  99.719  1.00  0.00     0.041 A 
ATOM     12  C   UNL     1      44.639  21.774  99.231  1.00  0.00     0.030 A 
ATOM     13  C   UNL     1      43.211  19.866  99.536  1.00  0.00     0.026 A 
ATOM     14  C   UNL     1      45.601  20.997  98.545  1.00  0.00    -0.037 A 
ATOM     15  C   UNL     1      44.152  19.074  98.881  1.00  0.00     0.007 A 
ATOM     16  C   UNL     1      46.877  21.677  98.029  1.00  0.00    -0.010 C 
ATOM     17  C   UNL     1      45.367  19.609  98.394  1.00  0.00    -0.038 A 
ATOM     18  C   UNL     1      47.638  20.775  97.032  1.00  0.00     0.012 C 
ATOM     19  C   UNL     1      46.361  18.679  97.687  1.00  0.00    -0.010 C 
ATOM     20  C   UNL     1      47.746  19.343  97.527  1.00  0.00     0.012 C 
ATOM     21  C   UNL     1      47.784  22.008  99.236  1.00  0.00     0.016 C 
ATOM     22  C   UNL     1      46.566  22.994  97.279  1.00  0.00     0.016 C 
ATOM     23  C   UNL     1      45.792  18.310  96.299  1.00  0.00     0.016 C 
ATOM     24  C   UNL     1      46.592  17.371  98.480  1.00  0.00     0.016 C 
ENDBRANCH   9  11
ENDBRANCH   1   7
BRANCH   6  25
ATOM     25  C   UNL     1      38.247  25.808 103.311  1.00  0.00     0.335 C 
ATOM     26  O   UNL     1      37.257  25.657 104.035  1.00  0.00    -0.246 OA
BRANCH  25  27
ATOM     27  O   UNL     1      38.688  27.039 102.936  1.00  0.00    -0.478 OA
ATOM     28  H   UNL     1      39.073  27.030 102.033  1.00  0.00     0.297 HD
ENDBRANCH  25  27
ENDBRANCH   6  25
TORSDOF 4
ENDMDL
