MODEL 1
REMARK VINA RESULT:    -6.727      0.000      0.000
REMARK INTER + INTRA:         -10.332
REMARK INTER:                  -9.087
REMARK INTRA:                  -1.246
REMARK UNBOUND:                -1.246
REMARK SMILES COC(=O)C1=C(C)NC(C)=C(C(=O)OC(C)C)[C@@H]1c1cccc2nonc12
REMARK SMILES IDX 7 1 6 2 5 3 18 4 11 5 9 6 8 7 10 8 3 10 4 11 2 12 1 13 19 14
REMARK SMILES IDX 20 15 27 16 21 17 26 18 23 19 22 20 25 21 24 22 12 23 13 24
REMARK SMILES IDX 14 25 15 26 16 27 17 28
REMARK H PARENT 8 9
ROOT
ATOM      1  C   UNL     1     151.143 165.467 153.327  1.00  0.00     0.065 C 
ATOM      2  C   UNL     1     150.774 166.918 153.505  1.00  0.00     0.023 C 
ATOM      3  C   UNL     1     151.112 167.909 152.649  1.00  0.00     0.068 C 
ATOM      4  C   UNL     1     150.704 169.356 152.910  1.00  0.00     0.100 C 
ATOM      5  C   UNL     1     149.974 169.544 154.234  1.00  0.00     0.068 C 
ATOM      6  C   UNL     1     149.691 168.499 155.042  1.00  0.00     0.023 C 
ATOM      7  N   UNL     1     150.069 167.222 154.661  1.00  0.00    -0.362 N 
ATOM      8  C   UNL     1     149.020 168.611 156.387  1.00  0.00     0.065 C 
ATOM      9  H   UNL     1     149.798 166.449 155.263  1.00  0.00     0.166 HD
ENDROOT
BRANCH   3  10
ATOM     10  C   UNL     1     151.864 167.629 151.405  1.00  0.00     0.336 C 
ATOM     11  O   UNL     1     153.051 167.861 151.238  1.00  0.00    -0.246 OA
BRANCH  10  12
ATOM     12  O   UNL     1     151.027 167.079 150.487  1.00  0.00    -0.466 OA
ATOM     13  C   UNL     1     151.360 167.402 149.137  1.00  0.00     0.282 C 
ENDBRANCH  10  12
ENDBRANCH   3  10
BRANCH   4  14
ATOM     14  C   UNL     1     149.896 169.926 151.752  1.00  0.00    -0.004 A 
ATOM     15  C   UNL     1     148.489 169.735 151.673  1.00  0.00     0.007 A 
ATOM     16  C   UNL     1     150.418 170.664 150.659  1.00  0.00     0.139 A 
ATOM     17  C   UNL     1     147.675 170.232 150.621  1.00  0.00     0.003 A 
ATOM     18  N   UNL     1     151.682 171.021 150.395  1.00  0.00    -0.049 NA
ATOM     19  C   UNL     1     149.578 171.171 149.579  1.00  0.00     0.135 A 
ATOM     20  C   UNL     1     148.187 170.967 149.539  1.00  0.00     0.034 A 
ATOM     21  O   UNL     1     151.642 171.727 149.208  1.00  0.00    -0.243 OA
ATOM     22  N   UNL     1     150.357 171.816 148.703  1.00  0.00    -0.050 NA
ENDBRANCH   4  14
BRANCH   5  23
ATOM     23  C   UNL     1     149.641 170.946 154.562  1.00  0.00     0.337 C 
ATOM     24  O   UNL     1     148.494 171.357 154.649  1.00  0.00    -0.246 OA
BRANCH  23  25
ATOM     25  O   UNL     1     150.772 171.641 154.836  1.00  0.00    -0.460 OA
BRANCH  25  26
ATOM     26  C   UNL     1     151.137 171.735 156.224  1.00  0.00     0.170 C 
ATOM     27  C   UNL     1     152.659 171.770 156.285  1.00  0.00     0.052 C 
ATOM     28  C   UNL     1     150.539 173.003 156.822  1.00  0.00     0.052 C 
ENDBRANCH  25  26
ENDBRANCH  23  25
ENDBRANCH   5  23
TORSDOF 6
ENDMDL
MODEL 2
REMARK VINA RESULT:    -6.705      1.921      2.362
REMARK INTER + INTRA:         -10.302
REMARK INTER:                  -9.237
REMARK INTRA:                  -1.065
REMARK UNBOUND:                -1.246
REMARK SMILES COC(=O)C1=C(C)NC(C)=C(C(=O)OC(C)C)[C@@H]1c1cccc2nonc12
REMARK SMILES IDX 7 1 6 2 5 3 18 4 11 5 9 6 8 7 10 8 3 10 4 11 2 12 1 13 19 14
REMARK SMILES IDX 20 15 27 16 21 17 26 18 23 19 22 20 25 21 24 22 12 23 13 24
REMARK SMILES IDX 14 25 15 26 16 27 17 28
REMARK H PARENT 8 9
ROOT
ATOM      1  C   UNL     1     150.579 165.877 152.813  1.00  0.00     0.065 C 
ATOM      2  C   UNL     1     150.395 167.197 153.519  1.00  0.00     0.023 C 
ATOM      3  C   UNL     1     150.997 168.353 153.159  1.00  0.00     0.068 C 
ATOM      4  C   UNL     1     150.760 169.645 153.936  1.00  0.00     0.100 C 
ATOM      5  C   UNL     1     149.868 169.457 155.157  1.00  0.00     0.068 C 
ATOM      6  C   UNL     1     149.320 168.259 155.456  1.00  0.00     0.023 C 
ATOM      7  N   UNL     1     149.570 167.172 154.634  1.00  0.00    -0.362 N 
ATOM      8  C   UNL     1     148.472 167.982 156.671  1.00  0.00     0.065 C 
ATOM      9  H   UNL     1     149.103 166.295 154.854  1.00  0.00     0.166 HD
ENDROOT
BRANCH   3  10
ATOM     10  C   UNL     1     151.885 168.425 151.978  1.00  0.00     0.336 C 
ATOM     11  O   UNL     1     151.572 168.890 150.893  1.00  0.00    -0.246 OA
BRANCH  10  12
ATOM     12  O   UNL     1     153.095 167.891 152.291  1.00  0.00    -0.466 OA
ATOM     13  C   UNL     1     153.704 167.174 151.218  1.00  0.00     0.282 C 
ENDBRANCH  10  12
ENDBRANCH   3  10
BRANCH   4  14
ATOM     14  C   UNL     1     150.229 170.751 153.034  1.00  0.00    -0.004 A 
ATOM     15  C   UNL     1     150.835 172.038 153.014  1.00  0.00     0.007 A 
ATOM     16  C   UNL     1     149.116 170.648 152.161  1.00  0.00     0.139 A 
ATOM     17  C   UNL     1     150.389 173.116 152.205  1.00  0.00     0.003 A 
ATOM     18  N   UNL     1     148.305 169.607 151.929  1.00  0.00    -0.049 NA
ATOM     19  C   UNL     1     148.661 171.759 151.332  1.00  0.00     0.135 A 
ATOM     20  C   UNL     1     149.290 173.017 151.335  1.00  0.00     0.034 A 
ATOM     21  O   UNL     1     147.385 170.037 150.993  1.00  0.00    -0.243 OA
ATOM     22  N   UNL     1     147.597 171.355 150.629  1.00  0.00    -0.050 NA
ENDBRANCH   4  14
BRANCH   5  23
ATOM     23  C   UNL     1     149.689 170.669 155.984  1.00  0.00     0.337 C 
ATOM     24  O   UNL     1     148.766 171.454 155.826  1.00  0.00    -0.246 OA
BRANCH  23  25
ATOM     25  O   UNL     1     150.622 170.704 156.966  1.00  0.00    -0.460 OA
BRANCH  25  26
ATOM     26  C   UNL     1     151.371 171.926 157.085  1.00  0.00     0.170 C 
ATOM     27  C   UNL     1     151.757 172.073 158.552  1.00  0.00     0.052 C 
ATOM     28  C   UNL     1     152.610 171.852 156.202  1.00  0.00     0.052 C 
ENDBRANCH  25  26
ENDBRANCH  23  25
ENDBRANCH   5  23
TORSDOF 6
ENDMDL
MODEL 3
REMARK VINA RESULT:    -6.694      6.704     10.128
REMARK INTER + INTRA:         -10.288
REMARK INTER:                  -8.625
REMARK INTRA:                  -1.663
REMARK UNBOUND:                -1.246
REMARK SMILES COC(=O)C1=C(C)NC(C)=C(C(=O)OC(C)C)[C@@H]1c1cccc2nonc12
REMARK SMILES IDX 7 1 6 2 5 3 18 4 11 5 9 6 8 7 10 8 3 10 4 11 2 12 1 13 19 14
REMARK SMILES IDX 20 15 27 16 21 17 26 18 23 19 22 20 25 21 24 22 12 23 13 24
REMARK SMILES IDX 14 25 15 26 16 27 17 28
REMARK H PARENT 8 9
ROOT
ATOM      1  C   UNL     1     153.024 160.292 143.982  1.00  0.00     0.065 C 
ATOM      2  C   UNL     1     151.966 160.630 145.002  1.00  0.00     0.023 C 
ATOM      3  C   UNL     1     152.198 161.278 146.166  1.00  0.00     0.068 C 
ATOM      4  C   UNL     1     151.067 161.573 147.147  1.00  0.00     0.100 C 
ATOM      5  C   UNL     1     149.725 161.002 146.707  1.00  0.00     0.068 C 
ATOM      6  C   UNL     1     149.584 160.349 145.532  1.00  0.00     0.023 C 
ATOM      7  N   UNL     1     150.683 160.196 144.703  1.00  0.00    -0.362 N 
ATOM      8  C   UNL     1     148.305 159.713 145.052  1.00  0.00     0.065 C 
ATOM      9  H   UNL     1     150.536 159.747 143.802  1.00  0.00     0.166 HD
ENDROOT
BRANCH   3  10
ATOM     10  C   UNL     1     153.551 161.757 146.526  1.00  0.00     0.336 C 
ATOM     11  O   UNL     1     154.110 162.718 146.021  1.00  0.00    -0.246 OA
BRANCH  10  12
ATOM     12  O   UNL     1     154.067 160.961 147.498  1.00  0.00    -0.466 OA
ATOM     13  C   UNL     1     154.732 161.678 148.538  1.00  0.00     0.282 C 
ENDBRANCH  10  12
ENDBRANCH   3  10
BRANCH   4  14
ATOM     14  C   UNL     1     150.958 163.064 147.443  1.00  0.00    -0.004 A 
ATOM     15  C   UNL     1     150.545 163.983 146.440  1.00  0.00     0.007 A 
ATOM     16  C   UNL     1     151.255 163.689 148.681  1.00  0.00     0.139 A 
ATOM     17  C   UNL     1     150.428 165.384 146.643  1.00  0.00     0.003 A 
ATOM     18  N   UNL     1     151.679 163.148 149.831  1.00  0.00    -0.049 NA
ATOM     19  C   UNL     1     151.135 165.128 148.884  1.00  0.00     0.135 A 
ATOM     20  C   UNL     1     150.716 166.007 147.868  1.00  0.00     0.034 A 
ATOM     21  O   UNL     1     151.814 164.196 150.721  1.00  0.00    -0.243 OA
ATOM     22  N   UNL     1     151.487 165.410 150.144  1.00  0.00    -0.050 NA
ENDBRANCH   4  14
BRANCH   5  23
ATOM     23  C   UNL     1     148.625 161.192 147.675  1.00  0.00     0.337 C 
ATOM     24  O   UNL     1     147.738 162.018 147.524  1.00  0.00    -0.246 OA
BRANCH  23  25
ATOM     25  O   UNL     1     148.709 160.268 148.662  1.00  0.00    -0.460 OA
BRANCH  25  26
ATOM     26  C   UNL     1     147.912 160.516 149.833  1.00  0.00     0.170 C 
ATOM     27  C   UNL     1     147.500 159.159 150.391  1.00  0.00     0.052 C 
ATOM     28  C   UNL     1     148.734 161.295 150.853  1.00  0.00     0.052 C 
ENDBRANCH  25  26
ENDBRANCH  23  25
ENDBRANCH   5  23
TORSDOF 6
ENDMDL
MODEL 4
REMARK VINA RESULT:    -6.646      6.561     10.073
REMARK INTER + INTRA:         -10.222
REMARK INTER:                  -8.800
REMARK INTRA:                  -1.422
REMARK UNBOUND:                -1.246
REMARK SMILES COC(=O)C1=C(C)NC(C)=C(C(=O)OC(C)C)[C@@H]1c1cccc2nonc12
REMARK SMILES IDX 7 1 6 2 5 3 18 4 11 5 9 6 8 7 10 8 3 10 4 11 2 12 1 13 19 14
REMARK SMILES IDX 20 15 27 16 21 17 26 18 23 19 22 20 25 21 24 22 12 23 13 24
REMARK SMILES IDX 14 25 15 26 16 27 17 28
REMARK H PARENT 8 9
ROOT
ATOM      1  C   UNL     1     151.896 160.216 152.107  1.00  0.00     0.065 C 
ATOM      2  C   UNL     1     152.130 160.664 150.687  1.00  0.00     0.023 C 
ATOM      3  C   UNL     1     151.167 161.125 149.856  1.00  0.00     0.068 C 
ATOM      4  C   UNL     1     151.490 161.551 148.427  1.00  0.00     0.100 C 
ATOM      5  C   UNL     1     152.949 161.325 148.048  1.00  0.00     0.068 C 
ATOM      6  C   UNL     1     153.845 160.841 148.936  1.00  0.00     0.023 C 
ATOM      7  N   UNL     1     153.433 160.545 150.225  1.00  0.00    -0.362 N 
ATOM      8  C   UNL     1     155.288 160.543 148.623  1.00  0.00     0.065 C 
ATOM      9  H   UNL     1     154.139 160.232 150.887  1.00  0.00     0.166 HD
ENDROOT
BRANCH   3  10
ATOM     10  C   UNL     1     149.765 161.267 150.306  1.00  0.00     0.336 C 
ATOM     11  O   UNL     1     149.371 162.085 151.123  1.00  0.00    -0.246 OA
BRANCH  10  12
ATOM     12  O   UNL     1     148.992 160.348 149.670  1.00  0.00    -0.466 OA
ATOM     13  C   UNL     1     147.857 160.907 149.009  1.00  0.00     0.282 C 
ENDBRANCH  10  12
ENDBRANCH   3  10
BRANCH   4  14
ATOM     14  C   UNL     1     151.072 162.992 148.165  1.00  0.00    -0.004 A 
ATOM     15  C   UNL     1     150.166 163.315 147.118  1.00  0.00     0.007 A 
ATOM     16  C   UNL     1     151.522 164.131 148.881  1.00  0.00     0.139 A 
ATOM     17  C   UNL     1     149.739 164.635 146.813  1.00  0.00     0.003 A 
ATOM     18  N   UNL     1     152.377 164.210 149.909  1.00  0.00    -0.049 NA
ATOM     19  C   UNL     1     151.082 165.485 148.563  1.00  0.00     0.135 A 
ATOM     20  C   UNL     1     150.178 165.765 147.522  1.00  0.00     0.034 A 
ATOM     21  O   UNL     1     152.468 165.551 150.230  1.00  0.00    -0.243 OA
ATOM     22  N   UNL     1     151.680 166.334 149.406  1.00  0.00    -0.050 NA
ENDBRANCH   4  14
BRANCH   5  23
ATOM     23  C   UNL     1     153.278 161.644 146.643  1.00  0.00     0.337 C 
ATOM     24  O   UNL     1     154.025 162.556 146.323  1.00  0.00    -0.246 OA
BRANCH  23  25
ATOM     25  O   UNL     1     152.718 160.729 145.815  1.00  0.00    -0.460 OA
BRANCH  25  26
ATOM     26  C   UNL     1     153.371 160.538 144.548  1.00  0.00     0.170 C 
ATOM     27  C   UNL     1     154.295 159.335 144.698  1.00  0.00     0.052 C 
ATOM     28  C   UNL     1     152.324 160.287 143.469  1.00  0.00     0.052 C 
ENDBRANCH  25  26
ENDBRANCH  23  25
ENDBRANCH   5  23
TORSDOF 6
ENDMDL
MODEL 5
REMARK VINA RESULT:    -6.624      9.804     12.868
REMARK INTER + INTRA:         -10.193
REMARK INTER:                  -8.724
REMARK INTRA:                  -1.469
REMARK UNBOUND:                -1.246
REMARK SMILES COC(=O)C1=C(C)NC(C)=C(C(=O)OC(C)C)[C@@H]1c1cccc2nonc12
REMARK SMILES IDX 7 1 6 2 5 3 18 4 11 5 9 6 8 7 10 8 3 10 4 11 2 12 1 13 19 14
REMARK SMILES IDX 20 15 27 16 21 17 26 18 23 19 22 20 25 21 24 22 12 23 13 24
REMARK SMILES IDX 14 25 15 26 16 27 17 28
REMARK H PARENT 8 9
ROOT
ATOM      1  C   UNL     1     153.117 153.807 152.715  1.00  0.00     0.065 C 
ATOM      2  C   UNL     1     152.479 154.976 152.008  1.00  0.00     0.023 C 
ATOM      3  C   UNL     1     153.109 156.137 151.717  1.00  0.00     0.068 C 
ATOM      4  C   UNL     1     152.385 157.275 151.004  1.00  0.00     0.100 C 
ATOM      5  C   UNL     1     150.912 156.982 150.747  1.00  0.00     0.068 C 
ATOM      6  C   UNL     1     150.355 155.798 151.087  1.00  0.00     0.023 C 
ATOM      7  N   UNL     1     151.139 154.823 151.681  1.00  0.00    -0.362 N 
ATOM      8  C   UNL     1     148.899 155.453 150.912  1.00  0.00     0.065 C 
ATOM      9  H   UNL     1     150.707 153.924 151.878  1.00  0.00     0.166 HD
ENDROOT
BRANCH   3  10
ATOM     10  C   UNL     1     154.536 156.343 152.049  1.00  0.00     0.336 C 
ATOM     11  O   UNL     1     155.465 155.710 151.570  1.00  0.00    -0.246 OA
BRANCH  10  12
ATOM     12  O   UNL     1     154.646 157.340 152.965  1.00  0.00    -0.466 OA
ATOM     13  C   UNL     1     155.665 158.293 152.661  1.00  0.00     0.282 C 
ENDBRANCH  10  12
ENDBRANCH   3  10
BRANCH   4  14
ATOM     14  C   UNL     1     153.098 157.673 149.718  1.00  0.00    -0.004 A 
ATOM     15  C   UNL     1     153.205 156.766 148.627  1.00  0.00     0.007 A 
ATOM     16  C   UNL     1     153.724 158.920 149.467  1.00  0.00     0.139 A 
ATOM     17  C   UNL     1     153.860 157.067 147.404  1.00  0.00     0.003 A 
ATOM     18  N   UNL     1     153.833 159.996 150.258  1.00  0.00    -0.049 NA
ATOM     19  C   UNL     1     154.397 159.223 148.209  1.00  0.00     0.135 A 
ATOM     20  C   UNL     1     154.477 158.302 147.149  1.00  0.00     0.034 A 
ATOM     21  O   UNL     1     154.536 160.937 149.532  1.00  0.00    -0.243 OA
ATOM     22  N   UNL     1     154.887 160.466 148.279  1.00  0.00    -0.050 NA
ENDBRANCH   4  14
BRANCH   5  23
ATOM     23  C   UNL     1     150.157 158.097 150.137  1.00  0.00     0.337 C 
ATOM     24  O   UNL     1     149.895 158.152 148.946  1.00  0.00    -0.246 OA
BRANCH  23  25
ATOM     25  O   UNL     1     149.738 158.955 151.098  1.00  0.00    -0.460 OA
BRANCH  25  26
ATOM     26  C   UNL     1     148.610 159.781 150.762  1.00  0.00     0.170 C 
ATOM     27  C   UNL     1     147.361 158.928 150.941  1.00  0.00     0.052 C 
ATOM     28  C   UNL     1     148.576 160.995 151.683  1.00  0.00     0.052 C 
ENDBRANCH  25  26
ENDBRANCH  23  25
ENDBRANCH   5  23
TORSDOF 6
ENDMDL
MODEL 6
REMARK VINA RESULT:    -6.618     10.860     14.127
REMARK INTER + INTRA:         -10.186
REMARK INTER:                  -8.506
REMARK INTRA:                  -1.679
REMARK UNBOUND:                -1.246
REMARK SMILES COC(=O)C1=C(C)NC(C)=C(C(=O)OC(C)C)[C@@H]1c1cccc2nonc12
REMARK SMILES IDX 7 1 6 2 5 3 18 4 11 5 9 6 8 7 10 8 3 10 4 11 2 12 1 13 19 14
REMARK SMILES IDX 20 15 27 16 21 17 26 18 23 19 22 20 25 21 24 22 12 23 13 24
REMARK SMILES IDX 14 25 15 26 16 27 17 28
REMARK H PARENT 8 9
ROOT
ATOM      1  C   UNL     1     145.981 157.868 145.183  1.00  0.00     0.065 C 
ATOM      2  C   UNL     1     146.649 158.076 146.518  1.00  0.00     0.023 C 
ATOM      3  C   UNL     1     146.341 157.397 147.647  1.00  0.00     0.068 C 
ATOM      4  C   UNL     1     147.063 157.677 148.962  1.00  0.00     0.100 C 
ATOM      5  C   UNL     1     148.068 158.818 148.864  1.00  0.00     0.068 C 
ATOM      6  C   UNL     1     148.303 159.458 147.697  1.00  0.00     0.023 C 
ATOM      7  N   UNL     1     147.617 159.068 146.558  1.00  0.00    -0.362 N 
ATOM      8  C   UNL     1     149.240 160.626 147.532  1.00  0.00     0.065 C 
ATOM      9  H   UNL     1     147.852 159.532 145.683  1.00  0.00     0.166 HD
ENDROOT
BRANCH   3  10
ATOM     10  C   UNL     1     145.314 156.332 147.650  1.00  0.00     0.336 C 
ATOM     11  O   UNL     1     145.464 155.214 147.182  1.00  0.00    -0.246 OA
BRANCH  10  12
ATOM     12  O   UNL     1     144.187 156.795 148.251  1.00  0.00    -0.466 OA
ATOM     13  C   UNL     1     143.811 156.060 149.415  1.00  0.00     0.282 C 
ENDBRANCH  10  12
ENDBRANCH   3  10
BRANCH   4  14
ATOM     14  C   UNL     1     147.715 156.419 149.521  1.00  0.00    -0.004 A 
ATOM     15  C   UNL     1     147.388 155.937 150.819  1.00  0.00     0.007 A 
ATOM     16  C   UNL     1     148.686 155.623 148.862  1.00  0.00     0.139 A 
ATOM     17  C   UNL     1     147.961 154.778 151.405  1.00  0.00     0.003 A 
ATOM     18  N   UNL     1     149.236 155.777 147.650  1.00  0.00    -0.049 NA
ATOM     19  C   UNL     1     149.272 154.434 149.469  1.00  0.00     0.135 A 
ATOM     20  C   UNL     1     148.919 153.984 150.754  1.00  0.00     0.034 A 
ATOM     21  O   UNL     1     150.123 154.729 147.495  1.00  0.00    -0.243 OA
ATOM     22  N   UNL     1     150.151 153.907 148.608  1.00  0.00    -0.050 NA
ENDBRANCH   4  14
BRANCH   5  23
ATOM     23  C   UNL     1     148.722 159.176 150.140  1.00  0.00     0.337 C 
ATOM     24  O   UNL     1     148.107 159.576 151.116  1.00  0.00    -0.246 OA
BRANCH  23  25
ATOM     25  O   UNL     1     150.047 158.899 150.077  1.00  0.00    -0.460 OA
BRANCH  25  26
ATOM     26  C   UNL     1     150.646 158.385 151.279  1.00  0.00     0.170 C 
ATOM     27  C   UNL     1     151.385 157.108 150.900  1.00  0.00     0.052 C 
ATOM     28  C   UNL     1     151.607 159.420 151.852  1.00  0.00     0.052 C 
ENDBRANCH  25  26
ENDBRANCH  23  25
ENDBRANCH   5  23
TORSDOF 6
ENDMDL
MODEL 7
REMARK VINA RESULT:    -6.595      9.118     12.470
REMARK INTER + INTRA:         -10.154
REMARK INTER:                  -8.315
REMARK INTRA:                  -1.839
REMARK UNBOUND:                -1.246
REMARK SMILES COC(=O)C1=C(C)NC(C)=C(C(=O)OC(C)C)[C@@H]1c1cccc2nonc12
REMARK SMILES IDX 7 1 6 2 5 3 18 4 11 5 9 6 8 7 10 8 3 10 4 11 2 12 1 13 19 14
REMARK SMILES IDX 20 15 27 16 21 17 26 18 23 19 22 20 25 21 24 22 12 23 13 24
REMARK SMILES IDX 14 25 15 26 16 27 17 28
REMARK H PARENT 8 9
ROOT
ATOM      1  C   UNL     1     154.140 159.574 144.765  1.00  0.00     0.065 C 
ATOM      2  C   UNL     1     154.415 159.352 146.231  1.00  0.00     0.023 C 
ATOM      3  C   UNL     1     153.796 160.008 147.239  1.00  0.00     0.068 C 
ATOM      4  C   UNL     1     154.142 159.727 148.698  1.00  0.00     0.100 C 
ATOM      5  C   UNL     1     155.275 158.723 148.864  1.00  0.00     0.068 C 
ATOM      6  C   UNL     1     155.854 158.125 147.799  1.00  0.00     0.023 C 
ATOM      7  N   UNL     1     155.407 158.428 146.523  1.00  0.00    -0.362 N 
ATOM      8  C   UNL     1     157.011 157.163 147.879  1.00  0.00     0.065 C 
ATOM      9  H   UNL     1     155.825 157.924 145.744  1.00  0.00     0.166 HD
ENDROOT
BRANCH   3  10
ATOM     10  C   UNL     1     152.733 161.003 146.972  1.00  0.00     0.336 C 
ATOM     11  O   UNL     1     151.609 160.737 146.575  1.00  0.00    -0.246 OA
BRANCH  10  12
ATOM     12  O   UNL     1     153.206 162.249 147.237  1.00  0.00    -0.466 OA
ATOM     13  C   UNL     1     152.306 163.059 147.992  1.00  0.00     0.282 C 
ENDBRANCH  10  12
ENDBRANCH   3  10
BRANCH   4  14
ATOM     14  C   UNL     1     152.913 159.304 149.493  1.00  0.00    -0.004 A 
ATOM     15  C   UNL     1     152.200 158.118 149.166  1.00  0.00     0.007 A 
ATOM     16  C   UNL     1     152.348 160.008 150.586  1.00  0.00     0.139 A 
ATOM     17  C   UNL     1     151.044 157.667 149.857  1.00  0.00     0.003 A 
ATOM     18  N   UNL     1     152.738 161.156 151.156  1.00  0.00    -0.049 NA
ATOM     19  C   UNL     1     151.159 159.542 151.292  1.00  0.00     0.135 A 
ATOM     20  C   UNL     1     150.483 158.359 150.943  1.00  0.00     0.034 A 
ATOM     21  O   UNL     1     151.842 161.400 152.180  1.00  0.00    -0.243 OA
ATOM     22  N   UNL     1     150.872 160.417 152.263  1.00  0.00    -0.050 NA
ENDBRANCH   4  14
BRANCH   5  23
ATOM     23  C   UNL     1     155.697 158.493 150.262  1.00  0.00     0.337 C 
ATOM     24  O   UNL     1     156.290 159.329 150.926  1.00  0.00    -0.246 OA
BRANCH  23  25
ATOM     25  O   UNL     1     155.245 157.291 150.692  1.00  0.00    -0.460 OA
BRANCH  25  26
ATOM     26  C   UNL     1     155.295 157.066 152.112  1.00  0.00     0.170 C 
ATOM     27  C   UNL     1     153.898 157.335 152.657  1.00  0.00     0.052 C 
ATOM     28  C   UNL     1     155.717 155.627 152.385  1.00  0.00     0.052 C 
ENDBRANCH  25  26
ENDBRANCH  23  25
ENDBRANCH   5  23
TORSDOF 6
ENDMDL
MODEL 8
REMARK VINA RESULT:    -6.569      2.703      6.253
REMARK INTER + INTRA:         -10.119
REMARK INTER:                  -8.795
REMARK INTRA:                  -1.324
REMARK UNBOUND:                -1.246
REMARK SMILES COC(=O)C1=C(C)NC(C)=C(C(=O)OC(C)C)[C@@H]1c1cccc2nonc12
REMARK SMILES IDX 7 1 6 2 5 3 18 4 11 5 9 6 8 7 10 8 3 10 4 11 2 12 1 13 19 14
REMARK SMILES IDX 20 15 27 16 21 17 26 18 23 19 22 20 25 21 24 22 12 23 13 24
REMARK SMILES IDX 14 25 15 26 16 27 17 28
REMARK H PARENT 8 9
ROOT
ATOM      1  C   UNL     1     151.588 174.684 156.204  1.00  0.00     0.065 C 
ATOM      2  C   UNL     1     151.010 173.817 155.114  1.00  0.00     0.023 C 
ATOM      3  C   UNL     1     151.053 172.465 155.102  1.00  0.00     0.068 C 
ATOM      4  C   UNL     1     150.450 171.663 153.952  1.00  0.00     0.100 C 
ATOM      5  C   UNL     1     149.891 172.538 152.837  1.00  0.00     0.068 C 
ATOM      6  C   UNL     1     149.904 173.887 152.921  1.00  0.00     0.023 C 
ATOM      7  N   UNL     1     150.434 174.493 154.049  1.00  0.00    -0.362 N 
ATOM      8  C   UNL     1     149.420 174.819 151.841  1.00  0.00     0.065 C 
ATOM      9  H   UNL     1     150.383 175.507 154.108  1.00  0.00     0.166 HD
ENDROOT
BRANCH   3  10
ATOM     10  C   UNL     1     151.659 171.703 156.216  1.00  0.00     0.336 C 
ATOM     11  O   UNL     1     151.038 171.195 157.136  1.00  0.00    -0.246 OA
BRANCH  10  12
ATOM     12  O   UNL     1     153.007 171.662 156.053  1.00  0.00    -0.466 OA
ATOM     13  C   UNL     1     153.741 171.854 157.262  1.00  0.00     0.282 C 
ENDBRANCH  10  12
ENDBRANCH   3  10
BRANCH   4  14
ATOM     14  C   UNL     1     149.403 170.675 154.450  1.00  0.00    -0.004 A 
ATOM     15  C   UNL     1     148.162 171.124 154.981  1.00  0.00     0.007 A 
ATOM     16  C   UNL     1     149.532 169.263 154.461  1.00  0.00     0.139 A 
ATOM     17  C   UNL     1     147.145 170.261 155.469  1.00  0.00     0.003 A 
ATOM     18  N   UNL     1     150.553 168.495 154.056  1.00  0.00    -0.049 NA
ATOM     19  C   UNL     1     148.485 168.380 154.964  1.00  0.00     0.135 A 
ATOM     20  C   UNL     1     147.267 168.862 155.477  1.00  0.00     0.034 A 
ATOM     21  O   UNL     1     150.166 167.189 154.285  1.00  0.00    -0.243 OA
ATOM     22  N   UNL     1     148.903 167.115 154.846  1.00  0.00    -0.050 NA
ENDBRANCH   4  14
BRANCH   5  23
ATOM     23  C   UNL     1     149.378 171.796 151.667  1.00  0.00     0.337 C 
ATOM     24  O   UNL     1     148.187 171.629 151.453  1.00  0.00    -0.246 OA
BRANCH  23  25
ATOM     25  O   UNL     1     150.403 171.437 150.858  1.00  0.00    -0.460 OA
BRANCH  25  26
ATOM     26  C   UNL     1     150.064 171.166 149.487  1.00  0.00     0.170 C 
ATOM     27  C   UNL     1     151.102 171.868 148.621  1.00  0.00     0.052 C 
ATOM     28  C   UNL     1     150.084 169.661 149.246  1.00  0.00     0.052 C 
ENDBRANCH  25  26
ENDBRANCH  23  25
ENDBRANCH   5  23
TORSDOF 6
ENDMDL
MODEL 9
REMARK VINA RESULT:    -6.535      8.206     11.538
REMARK INTER + INTRA:         -10.072
REMARK INTER:                  -8.320
REMARK INTRA:                  -1.753
REMARK UNBOUND:                -1.246
REMARK SMILES COC(=O)C1=C(C)NC(C)=C(C(=O)OC(C)C)[C@@H]1c1cccc2nonc12
REMARK SMILES IDX 7 1 6 2 5 3 18 4 11 5 9 6 8 7 10 8 3 10 4 11 2 12 1 13 19 14
REMARK SMILES IDX 20 15 27 16 21 17 26 18 23 19 22 20 25 21 24 22 12 23 13 24
REMARK SMILES IDX 14 25 15 26 16 27 17 28
REMARK H PARENT 8 9
ROOT
ATOM      1  C   UNL     1     148.585 156.293 150.181  1.00  0.00     0.065 C 
ATOM      2  C   UNL     1     149.450 157.479 150.521  1.00  0.00     0.023 C 
ATOM      3  C   UNL     1     150.762 157.408 150.845  1.00  0.00     0.068 C 
ATOM      4  C   UNL     1     151.564 158.661 151.184  1.00  0.00     0.100 C 
ATOM      5  C   UNL     1     150.721 159.930 151.190  1.00  0.00     0.068 C 
ATOM      6  C   UNL     1     149.408 159.911 150.871  1.00  0.00     0.023 C 
ATOM      7  N   UNL     1     148.809 158.709 150.526  1.00  0.00    -0.362 N 
ATOM      8  C   UNL     1     148.499 161.111 150.904  1.00  0.00     0.065 C 
ATOM      9  H   UNL     1     147.834 158.733 150.240  1.00  0.00     0.166 HD
ENDROOT
BRANCH   3  10
ATOM     10  C   UNL     1     151.484 156.116 150.853  1.00  0.00     0.336 C 
ATOM     11  O   UNL     1     151.841 155.507 149.857  1.00  0.00    -0.246 OA
BRANCH  10  12
ATOM     12  O   UNL     1     151.684 155.721 152.138  1.00  0.00    -0.466 OA
ATOM     13  C   UNL     1     153.054 155.485 152.462  1.00  0.00     0.282 C 
ENDBRANCH  10  12
ENDBRANCH   3  10
BRANCH   4  14
ATOM     14  C   UNL     1     152.776 158.812 150.274  1.00  0.00    -0.004 A 
ATOM     15  C   UNL     1     152.636 158.819 148.859  1.00  0.00     0.007 A 
ATOM     16  C   UNL     1     154.123 158.941 150.699  1.00  0.00     0.139 A 
ATOM     17  C   UNL     1     153.721 158.948 147.952  1.00  0.00     0.003 A 
ATOM     18  N   UNL     1     154.629 158.961 151.940  1.00  0.00    -0.049 NA
ATOM     19  C   UNL     1     155.234 159.072 149.764  1.00  0.00     0.135 A 
ATOM     20  C   UNL     1     155.056 159.081 148.369  1.00  0.00     0.034 A 
ATOM     21  O   UNL     1     155.995 159.106 151.795  1.00  0.00    -0.243 OA
ATOM     22  N   UNL     1     156.370 159.169 150.465  1.00  0.00    -0.050 NA
ENDBRANCH   4  14
BRANCH   5  23
ATOM     23  C   UNL     1     151.446 161.151 151.601  1.00  0.00     0.337 C 
ATOM     24  O   UNL     1     152.017 161.258 152.676  1.00  0.00    -0.246 OA
BRANCH  23  25
ATOM     25  O   UNL     1     151.454 162.050 150.588  1.00  0.00    -0.460 OA
BRANCH  25  26
ATOM     26  C   UNL     1     152.606 162.907 150.510  1.00  0.00     0.170 C 
ATOM     27  C   UNL     1     153.420 162.455 149.304  1.00  0.00     0.052 C 
ATOM     28  C   UNL     1     152.154 164.354 150.349  1.00  0.00     0.052 C 
ENDBRANCH  25  26
ENDBRANCH  23  25
ENDBRANCH   5  23
TORSDOF 6
ENDMDL
MODEL 10
REMARK VINA RESULT:    -6.520      6.430      9.945
REMARK INTER + INTRA:         -10.052
REMARK INTER:                  -8.639
REMARK INTRA:                  -1.413
REMARK UNBOUND:                -1.246
REMARK SMILES COC(=O)C1=C(C)NC(C)=C(C(=O)OC(C)C)[C@@H]1c1cccc2nonc12
REMARK SMILES IDX 7 1 6 2 5 3 18 4 11 5 9 6 8 7 10 8 3 10 4 11 2 12 1 13 19 14
REMARK SMILES IDX 20 15 27 16 21 17 26 18 23 19 22 20 25 21 24 22 12 23 13 24
REMARK SMILES IDX 14 25 15 26 16 27 17 28
REMARK H PARENT 8 9
ROOT
ATOM      1  C   UNL     1     155.123 161.016 146.093  1.00  0.00     0.065 C 
ATOM      2  C   UNL     1     153.741 161.254 146.647  1.00  0.00     0.023 C 
ATOM      3  C   UNL     1     153.456 161.421 147.959  1.00  0.00     0.068 C 
ATOM      4  C   UNL     1     152.025 161.650 148.436  1.00  0.00     0.100 C 
ATOM      5  C   UNL     1     150.999 161.587 147.311  1.00  0.00     0.068 C 
ATOM      6  C   UNL     1     151.369 161.397 146.025  1.00  0.00     0.023 C 
ATOM      7  N   UNL     1     152.712 161.258 145.716  1.00  0.00    -0.362 N 
ATOM      8  C   UNL     1     150.413 161.273 144.866  1.00  0.00     0.065 C 
ATOM      9  H   UNL     1     152.965 161.169 144.735  1.00  0.00     0.166 HD
ENDROOT
BRANCH   3  10
ATOM     10  C   UNL     1     154.522 161.422 148.985  1.00  0.00     0.336 C 
ATOM     11  O   UNL     1     155.332 162.320 149.152  1.00  0.00    -0.246 OA
BRANCH  10  12
ATOM     12  O   UNL     1     154.455 160.271 149.705  1.00  0.00    -0.466 OA
ATOM     13  C   UNL     1     155.572 159.404 149.511  1.00  0.00     0.282 C 
ENDBRANCH  10  12
ENDBRANCH   3  10
BRANCH   4  14
ATOM     14  C   UNL     1     151.898 162.948 149.222  1.00  0.00    -0.004 A 
ATOM     15  C   UNL     1     151.667 164.187 148.562  1.00  0.00     0.007 A 
ATOM     16  C   UNL     1     152.005 163.081 150.630  1.00  0.00     0.139 A 
ATOM     17  C   UNL     1     151.546 165.434 149.230  1.00  0.00     0.003 A 
ATOM     18  N   UNL     1     152.230 162.145 151.561  1.00  0.00    -0.049 NA
ATOM     19  C   UNL     1     151.882 164.365 151.311  1.00  0.00     0.135 A 
ATOM     20  C   UNL     1     151.647 165.570 150.624  1.00  0.00     0.034 A 
ATOM     21  O   UNL     1     152.241 162.805 152.775  1.00  0.00    -0.243 OA
ATOM     22  N   UNL     1     152.033 164.164 152.625  1.00  0.00    -0.050 NA
ENDBRANCH   4  14
BRANCH   5  23
ATOM     23  C   UNL     1     149.593 161.716 147.748  1.00  0.00     0.337 C 
ATOM     24  O   UNL     1     148.869 162.637 147.402  1.00  0.00    -0.246 OA
BRANCH  23  25
ATOM     25  O   UNL     1     149.233 160.636 148.481  1.00  0.00    -0.460 OA
BRANCH  25  26
ATOM     26  C   UNL     1     148.174 160.839 149.433  1.00  0.00     0.170 C 
ATOM     27  C   UNL     1     147.454 159.506 149.593  1.00  0.00     0.052 C 
ATOM     28  C   UNL     1     148.764 161.301 150.760  1.00  0.00     0.052 C 
ENDBRANCH  25  26
ENDBRANCH  23  25
ENDBRANCH   5  23
TORSDOF 6
ENDMDL
MODEL 11
REMARK VINA RESULT:    -6.515      7.132     10.097
REMARK INTER + INTRA:         -10.046
REMARK INTER:                  -8.393
REMARK INTRA:                  -1.653
REMARK UNBOUND:                -1.246
REMARK SMILES COC(=O)C1=C(C)NC(C)=C(C(=O)OC(C)C)[C@@H]1c1cccc2nonc12
REMARK SMILES IDX 7 1 6 2 5 3 18 4 11 5 9 6 8 7 10 8 3 10 4 11 2 12 1 13 19 14
REMARK SMILES IDX 20 15 27 16 21 17 26 18 23 19 22 20 25 21 24 22 12 23 13 24
REMARK SMILES IDX 14 25 15 26 16 27 17 28
REMARK H PARENT 8 9
ROOT
ATOM      1  C   UNL     1     151.754 157.393 150.858  1.00  0.00     0.065 C 
ATOM      2  C   UNL     1     151.968 158.822 150.427  1.00  0.00     0.023 C 
ATOM      3  C   UNL     1     153.178 159.404 150.266  1.00  0.00     0.068 C 
ATOM      4  C   UNL     1     153.304 160.862 149.834  1.00  0.00     0.100 C 
ATOM      5  C   UNL     1     151.960 161.566 149.693  1.00  0.00     0.068 C 
ATOM      6  C   UNL     1     150.794 160.912 149.891  1.00  0.00     0.023 C 
ATOM      7  N   UNL     1     150.816 159.568 150.227  1.00  0.00    -0.362 N 
ATOM      8  C   UNL     1     149.430 161.549 149.821  1.00  0.00     0.065 C 
ATOM      9  H   UNL     1     149.923 159.089 150.318  1.00  0.00     0.166 HD
ENDROOT
BRANCH   3  10
ATOM     10  C   UNL     1     154.432 158.645 150.470  1.00  0.00     0.336 C 
ATOM     11  O   UNL     1     154.890 157.827 149.689  1.00  0.00    -0.246 OA
BRANCH  10  12
ATOM     12  O   UNL     1     154.986 159.003 151.658  1.00  0.00    -0.466 OA
ATOM     13  C   UNL     1     155.545 157.910 152.386  1.00  0.00     0.282 C 
ENDBRANCH  10  12
ENDBRANCH   3  10
BRANCH   4  14
ATOM     14  C   UNL     1     154.131 160.999 148.562  1.00  0.00    -0.004 A 
ATOM     15  C   UNL     1     153.703 160.408 147.341  1.00  0.00     0.007 A 
ATOM     16  C   UNL     1     155.369 161.679 148.444  1.00  0.00     0.139 A 
ATOM     17  C   UNL     1     154.425 160.488 146.121  1.00  0.00     0.003 A 
ATOM     18  N   UNL     1     156.075 162.335 149.376  1.00  0.00    -0.049 NA
ATOM     19  C   UNL     1     156.108 161.758 147.189  1.00  0.00     0.135 A 
ATOM     20  C   UNL     1     155.650 161.165 145.999  1.00  0.00     0.034 A 
ATOM     21  O   UNL     1     157.204 162.812 148.738  1.00  0.00    -0.243 OA
ATOM     22  N   UNL     1     157.230 162.456 147.400  1.00  0.00    -0.050 NA
ENDBRANCH   4  14
BRANCH   5  23
ATOM     23  C   UNL     1     152.047 163.003 149.362  1.00  0.00     0.337 C 
ATOM     24  O   UNL     1     151.611 163.476 148.323  1.00  0.00    -0.246 OA
BRANCH  23  25
ATOM     25  O   UNL     1     152.577 163.689 150.403  1.00  0.00    -0.460 OA
BRANCH  25  26
ATOM     26  C   UNL     1     151.637 164.277 151.319  1.00  0.00     0.170 C 
ATOM     27  C   UNL     1     151.870 163.627 152.677  1.00  0.00     0.052 C 
ATOM     28  C   UNL     1     151.868 165.782 151.390  1.00  0.00     0.052 C 
ENDBRANCH  25  26
ENDBRANCH  23  25
ENDBRANCH   5  23
TORSDOF 6
ENDMDL
MODEL 12
REMARK VINA RESULT:    -6.451      7.166     10.210
REMARK INTER + INTRA:          -9.959
REMARK INTER:                  -8.318
REMARK INTRA:                  -1.641
REMARK UNBOUND:                -1.246
REMARK SMILES COC(=O)C1=C(C)NC(C)=C(C(=O)OC(C)C)[C@@H]1c1cccc2nonc12
REMARK SMILES IDX 7 1 6 2 5 3 18 4 11 5 9 6 8 7 10 8 3 10 4 11 2 12 1 13 19 14
REMARK SMILES IDX 20 15 27 16 21 17 26 18 23 19 22 20 25 21 24 22 12 23 13 24
REMARK SMILES IDX 14 25 15 26 16 27 17 28
REMARK H PARENT 8 9
ROOT
ATOM      1  C   UNL     1     155.990 159.276 149.688  1.00  0.00     0.065 C 
ATOM      2  C   UNL     1     154.791 160.029 149.171  1.00  0.00     0.023 C 
ATOM      3  C   UNL     1     153.546 159.948 149.694  1.00  0.00     0.068 C 
ATOM      4  C   UNL     1     152.384 160.740 149.102  1.00  0.00     0.100 C 
ATOM      5  C   UNL     1     152.768 161.532 147.859  1.00  0.00     0.068 C 
ATOM      6  C   UNL     1     154.036 161.544 147.390  1.00  0.00     0.023 C 
ATOM      7  N   UNL     1     155.014 160.823 148.056  1.00  0.00    -0.362 N 
ATOM      8  C   UNL     1     154.482 162.259 146.142  1.00  0.00     0.065 C 
ATOM      9  H   UNL     1     155.969 160.893 147.711  1.00  0.00     0.166 HD
ENDROOT
BRANCH   3  10
ATOM     10  C   UNL     1     153.263 159.112 150.882  1.00  0.00     0.336 C 
ATOM     11  O   UNL     1     153.477 159.443 152.038  1.00  0.00    -0.246 OA
BRANCH  10  12
ATOM     12  O   UNL     1     152.732 157.927 150.483  1.00  0.00    -0.466 OA
ATOM     13  C   UNL     1     153.113 156.820 151.300  1.00  0.00     0.282 C 
ENDBRANCH  10  12
ENDBRANCH   3  10
BRANCH   4  14
ATOM     14  C   UNL     1     151.731 161.638 150.145  1.00  0.00    -0.004 A 
ATOM     15  C   UNL     1     152.439 162.729 150.721  1.00  0.00     0.007 A 
ATOM     16  C   UNL     1     150.416 161.498 150.657  1.00  0.00     0.139 A 
ATOM     17  C   UNL     1     151.897 163.602 151.701  1.00  0.00     0.003 A 
ATOM     18  N   UNL     1     149.477 160.590 150.361  1.00  0.00    -0.049 NA
ATOM     19  C   UNL     1     149.864 162.396 151.665  1.00  0.00     0.135 A 
ATOM     20  C   UNL     1     150.593 163.470 152.207  1.00  0.00     0.034 A 
ATOM     21  O   UNL     1     148.380 160.903 151.140  1.00  0.00    -0.243 OA
ATOM     22  N   UNL     1     148.615 162.005 151.943  1.00  0.00    -0.050 NA
ENDBRANCH   4  14
BRANCH   5  23
ATOM     23  C   UNL     1     151.648 162.242 147.207  1.00  0.00     0.337 C 
ATOM     24  O   UNL     1     150.673 161.668 146.746  1.00  0.00    -0.246 OA
BRANCH  23  25
ATOM     25  O   UNL     1     151.831 163.581 147.296  1.00  0.00    -0.460 OA
BRANCH  25  26
ATOM     26  C   UNL     1     150.676 164.356 147.664  1.00  0.00     0.170 C 
ATOM     27  C   UNL     1     151.146 165.420 148.648  1.00  0.00     0.052 C 
ATOM     28  C   UNL     1     150.074 164.995 146.418  1.00  0.00     0.052 C 
ENDBRANCH  25  26
ENDBRANCH  23  25
ENDBRANCH   5  23
TORSDOF 6
ENDMDL
MODEL 13
REMARK VINA RESULT:    -6.446      5.962      9.740
REMARK INTER + INTRA:          -9.952
REMARK INTER:                  -8.194
REMARK INTRA:                  -1.759
REMARK UNBOUND:                -1.246
REMARK SMILES COC(=O)C1=C(C)NC(C)=C(C(=O)OC(C)C)[C@@H]1c1cccc2nonc12
REMARK SMILES IDX 7 1 6 2 5 3 18 4 11 5 9 6 8 7 10 8 3 10 4 11 2 12 1 13 19 14
REMARK SMILES IDX 20 15 27 16 21 17 26 18 23 19 22 20 25 21 24 22 12 23 13 24
REMARK SMILES IDX 14 25 15 26 16 27 17 28
REMARK H PARENT 8 9
ROOT
ATOM      1  C   UNL     1     151.220 164.457 153.166  1.00  0.00     0.065 C 
ATOM      2  C   UNL     1     150.837 163.644 151.955  1.00  0.00     0.023 C 
ATOM      3  C   UNL     1     151.155 163.964 150.680  1.00  0.00     0.068 C 
ATOM      4  C   UNL     1     150.719 163.087 149.510  1.00  0.00     0.100 C 
ATOM      5  C   UNL     1     149.854 161.906 149.934  1.00  0.00     0.068 C 
ATOM      6  C   UNL     1     149.567 161.668 151.233  1.00  0.00     0.023 C 
ATOM      7  N   UNL     1     150.073 162.513 152.208  1.00  0.00    -0.362 N 
ATOM      8  C   UNL     1     148.679 160.555 151.726  1.00  0.00     0.065 C 
ATOM      9  H   UNL     1     149.885 162.280 153.180  1.00  0.00     0.166 HD
ENDROOT
BRANCH   3  10
ATOM     10  C   UNL     1     151.966 165.161 150.366  1.00  0.00     0.336 C 
ATOM     11  O   UNL     1     153.173 165.251 150.529  1.00  0.00    -0.246 OA
BRANCH  10  12
ATOM     12  O   UNL     1     151.158 166.135 149.872  1.00  0.00    -0.466 OA
ATOM     13  C   UNL     1     151.531 166.589 148.571  1.00  0.00     0.282 C 
ENDBRANCH  10  12
ENDBRANCH   3  10
BRANCH   4  14
ATOM     14  C   UNL     1     151.912 162.623 148.684  1.00  0.00    -0.004 A 
ATOM     15  C   UNL     1     152.073 163.033 147.332  1.00  0.00     0.007 A 
ATOM     16  C   UNL     1     152.946 161.760 149.129  1.00  0.00     0.139 A 
ATOM     17  C   UNL     1     153.154 162.635 146.502  1.00  0.00     0.003 A 
ATOM     18  N   UNL     1     153.115 161.175 150.322  1.00  0.00    -0.049 NA
ATOM     19  C   UNL     1     154.054 161.353 148.272  1.00  0.00     0.135 A 
ATOM     20  C   UNL     1     154.183 161.785 146.940  1.00  0.00     0.034 A 
ATOM     21  O   UNL     1     154.280 160.438 150.226  1.00  0.00    -0.243 OA
ATOM     22  N   UNL     1     154.855 160.541 148.972  1.00  0.00    -0.050 NA
ENDBRANCH   4  14
BRANCH   5  23
ATOM     23  C   UNL     1     149.340 161.085 148.818  1.00  0.00     0.337 C 
ATOM     24  O   UNL     1     148.480 161.475 148.043  1.00  0.00    -0.246 OA
BRANCH  23  25
ATOM     25  O   UNL     1     150.027 159.919 148.744  1.00  0.00    -0.460 OA
BRANCH  25  26
ATOM     26  C   UNL     1     149.935 159.207 147.498  1.00  0.00     0.170 C 
ATOM     27  C   UNL     1     151.320 159.234 146.864  1.00  0.00     0.052 C 
ATOM     28  C   UNL     1     149.486 157.775 147.762  1.00  0.00     0.052 C 
ENDBRANCH  25  26
ENDBRANCH  23  25
ENDBRANCH   5  23
TORSDOF 6
ENDMDL
MODEL 14
REMARK VINA RESULT:    -6.366      6.203      9.733
REMARK INTER + INTRA:          -9.844
REMARK INTER:                  -8.366
REMARK INTRA:                  -1.478
REMARK UNBOUND:                -1.246
REMARK SMILES COC(=O)C1=C(C)NC(C)=C(C(=O)OC(C)C)[C@@H]1c1cccc2nonc12
REMARK SMILES IDX 7 1 6 2 5 3 18 4 11 5 9 6 8 7 10 8 3 10 4 11 2 12 1 13 19 14
REMARK SMILES IDX 20 15 27 16 21 17 26 18 23 19 22 20 25 21 24 22 12 23 13 24
REMARK SMILES IDX 14 25 15 26 16 27 17 28
REMARK H PARENT 8 9
ROOT
ATOM      1  C   UNL     1     151.460 166.476 149.831  1.00  0.00     0.065 C 
ATOM      2  C   UNL     1     151.375 164.977 149.698  1.00  0.00     0.023 C 
ATOM      3  C   UNL     1     151.002 164.324 148.573  1.00  0.00     0.068 C 
ATOM      4  C   UNL     1     150.934 162.801 148.526  1.00  0.00     0.100 C 
ATOM      5  C   UNL     1     151.248 162.144 149.865  1.00  0.00     0.068 C 
ATOM      6  C   UNL     1     151.596 162.874 150.948  1.00  0.00     0.023 C 
ATOM      7  N   UNL     1     151.674 164.253 150.843  1.00  0.00    -0.362 N 
ATOM      8  C   UNL     1     151.869 162.303 152.315  1.00  0.00     0.065 C 
ATOM      9  H   UNL     1     151.989 164.772 151.658  1.00  0.00     0.166 HD
ENDROOT
BRANCH   3  10
ATOM     10  C   UNL     1     150.673 165.057 147.330  1.00  0.00     0.336 C 
ATOM     11  O   UNL     1     149.542 165.270 146.922  1.00  0.00    -0.246 OA
BRANCH  10  12
ATOM     12  O   UNL     1     151.822 165.449 146.721  1.00  0.00    -0.466 OA
ATOM     13  C   UNL     1     151.806 166.806 146.279  1.00  0.00     0.282 C 
ENDBRANCH  10  12
ENDBRANCH   3  10
BRANCH   4  14
ATOM     14  C   UNL     1     151.815 162.236 147.419  1.00  0.00    -0.004 A 
ATOM     15  C   UNL     1     153.233 162.277 147.516  1.00  0.00     0.007 A 
ATOM     16  C   UNL     1     151.358 161.647 146.213  1.00  0.00     0.139 A 
ATOM     17  C   UNL     1     154.114 161.777 146.521  1.00  0.00     0.003 A 
ATOM     18  N   UNL     1     150.105 161.453 145.778  1.00  0.00    -0.049 NA
ATOM     19  C   UNL     1     152.267 161.136 145.193  1.00  0.00     0.135 A 
ATOM     20  C   UNL     1     153.666 161.188 145.327  1.00  0.00     0.034 A 
ATOM     21  O   UNL     1     150.217 160.841 144.544  1.00  0.00    -0.243 OA
ATOM     22  N   UNL     1     151.539 160.650 144.181  1.00  0.00    -0.050 NA
ENDBRANCH   4  14
BRANCH   5  23
ATOM     23  C   UNL     1     151.106 160.673 149.880  1.00  0.00     0.337 C 
ATOM     24  O   UNL     1     152.051 159.913 150.025  1.00  0.00    -0.246 OA
BRANCH  23  25
ATOM     25  O   UNL     1     149.797 160.331 149.812  1.00  0.00    -0.460 OA
BRANCH  25  26
ATOM     26  C   UNL     1     149.266 159.623 150.945  1.00  0.00     0.170 C 
ATOM     27  C   UNL     1     148.486 160.632 151.778  1.00  0.00     0.052 C 
ATOM     28  C   UNL     1     148.358 158.498 150.463  1.00  0.00     0.052 C 
ENDBRANCH  25  26
ENDBRANCH  23  25
ENDBRANCH   5  23
TORSDOF 6
ENDMDL
MODEL 15
REMARK VINA RESULT:    -6.339     10.694     14.382
REMARK INTER + INTRA:          -9.809
REMARK INTER:                  -8.232
REMARK INTRA:                  -1.577
REMARK UNBOUND:                -1.246
REMARK SMILES COC(=O)C1=C(C)NC(C)=C(C(=O)OC(C)C)[C@@H]1c1cccc2nonc12
REMARK SMILES IDX 7 1 6 2 5 3 18 4 11 5 9 6 8 7 10 8 3 10 4 11 2 12 1 13 19 14
REMARK SMILES IDX 20 15 27 16 21 17 26 18 23 19 22 20 25 21 24 22 12 23 13 24
REMARK SMILES IDX 14 25 15 26 16 27 17 28
REMARK H PARENT 8 9
ROOT
ATOM      1  C   UNL     1     150.239 159.986 148.252  1.00  0.00     0.065 C 
ATOM      2  C   UNL     1     150.428 158.706 149.026  1.00  0.00     0.023 C 
ATOM      3  C   UNL     1     149.520 158.182 149.880  1.00  0.00     0.068 C 
ATOM      4  C   UNL     1     149.795 156.882 150.631  1.00  0.00     0.100 C 
ATOM      5  C   UNL     1     151.187 156.321 150.370  1.00  0.00     0.068 C 
ATOM      6  C   UNL     1     152.043 156.919 149.511  1.00  0.00     0.023 C 
ATOM      7  N   UNL     1     151.647 158.070 148.848  1.00  0.00    -0.362 N 
ATOM      8  C   UNL     1     153.450 156.456 149.239  1.00  0.00     0.065 C 
ATOM      9  H   UNL     1     152.291 158.469 148.169  1.00  0.00     0.166 HD
ENDROOT
BRANCH   3  10
ATOM     10  C   UNL     1     148.207 158.828 150.101  1.00  0.00     0.336 C 
ATOM     11  O   UNL     1     147.281 158.823 149.305  1.00  0.00    -0.246 OA
BRANCH  10  12
ATOM     12  O   UNL     1     148.198 159.424 151.322  1.00  0.00    -0.466 OA
ATOM     13  C   UNL     1     148.364 160.841 151.273  1.00  0.00     0.282 C 
ENDBRANCH  10  12
ENDBRANCH   3  10
BRANCH   4  14
ATOM     14  C   UNL     1     148.722 155.838 150.354  1.00  0.00    -0.004 A 
ATOM     15  C   UNL     1     147.878 155.358 151.393  1.00  0.00     0.007 A 
ATOM     16  C   UNL     1     148.454 155.235 149.099  1.00  0.00     0.139 A 
ATOM     17  C   UNL     1     146.863 154.382 151.208  1.00  0.00     0.003 A 
ATOM     18  N   UNL     1     149.050 155.428 147.914  1.00  0.00    -0.049 NA
ATOM     19  C   UNL     1     147.412 154.231 148.914  1.00  0.00     0.135 A 
ATOM     20  C   UNL     1     146.592 153.785 149.966  1.00  0.00     0.034 A 
ATOM     21  O   UNL     1     148.409 154.591 147.020  1.00  0.00    -0.243 OA
ATOM     22  N   UNL     1     147.409 153.854 147.630  1.00  0.00    -0.050 NA
ENDBRANCH   4  14
BRANCH   5  23
ATOM     23  C   UNL     1     151.522 155.110 151.148  1.00  0.00     0.337 C 
ATOM     24  O   UNL     1     151.570 153.993 150.657  1.00  0.00    -0.246 OA
BRANCH  23  25
ATOM     25  O   UNL     1     151.851 155.450 152.418  1.00  0.00    -0.460 OA
BRANCH  25  26
ATOM     26  C   UNL     1     153.238 155.315 152.771  1.00  0.00     0.170 C 
ATOM     27  C   UNL     1     153.778 156.719 153.011  1.00  0.00     0.052 C 
ATOM     28  C   UNL     1     153.362 154.463 154.029  1.00  0.00     0.052 C 
ENDBRANCH  25  26
ENDBRANCH  23  25
ENDBRANCH   5  23
TORSDOF 6
ENDMDL
MODEL 16
REMARK VINA RESULT:    -6.338      5.522      8.205
REMARK INTER + INTRA:          -9.808
REMARK INTER:                  -8.351
REMARK INTRA:                  -1.457
REMARK UNBOUND:                -1.246
REMARK SMILES COC(=O)C1=C(C)NC(C)=C(C(=O)OC(C)C)[C@@H]1c1cccc2nonc12
REMARK SMILES IDX 7 1 6 2 5 3 18 4 11 5 9 6 8 7 10 8 3 10 4 11 2 12 1 13 19 14
REMARK SMILES IDX 20 15 27 16 21 17 26 18 23 19 22 20 25 21 24 22 12 23 13 24
REMARK SMILES IDX 14 25 15 26 16 27 17 28
REMARK H PARENT 8 9
ROOT
ATOM      1  C   UNL     1     151.532 159.890 152.807  1.00  0.00     0.065 C 
ATOM      2  C   UNL     1     151.588 161.125 151.944  1.00  0.00     0.023 C 
ATOM      3  C   UNL     1     152.170 161.187 150.725  1.00  0.00     0.068 C 
ATOM      4  C   UNL     1     152.189 162.483 149.920  1.00  0.00     0.100 C 
ATOM      5  C   UNL     1     151.569 163.660 150.662  1.00  0.00     0.068 C 
ATOM      6  C   UNL     1     151.023 163.515 151.890  1.00  0.00     0.023 C 
ATOM      7  N   UNL     1     151.021 162.267 152.491  1.00  0.00    -0.362 N 
ATOM      8  C   UNL     1     150.439 164.638 152.707  1.00  0.00     0.065 C 
ATOM      9  H   UNL     1     150.557 162.177 153.392  1.00  0.00     0.166 HD
ENDROOT
BRANCH   3  10
ATOM     10  C   UNL     1     152.788 159.993 150.105  1.00  0.00     0.336 C 
ATOM     11  O   UNL     1     152.173 159.093 149.555  1.00  0.00    -0.246 OA
BRANCH  10  12
ATOM     12  O   UNL     1     154.137 160.060 150.245  1.00  0.00    -0.466 OA
ATOM     13  C   UNL     1     154.851 159.952 149.014  1.00  0.00     0.282 C 
ENDBRANCH  10  12
ENDBRANCH   3  10
BRANCH   4  14
ATOM     14  C   UNL     1     151.548 162.299 148.550  1.00  0.00    -0.004 A 
ATOM     15  C   UNL     1     152.303 162.470 147.357  1.00  0.00     0.007 A 
ATOM     16  C   UNL     1     150.191 161.970 148.306  1.00  0.00     0.139 A 
ATOM     17  C   UNL     1     151.770 162.323 146.049  1.00  0.00     0.003 A 
ATOM     18  N   UNL     1     149.195 161.750 149.175  1.00  0.00    -0.049 NA
ATOM     19  C   UNL     1     149.648 161.821 146.960  1.00  0.00     0.135 A 
ATOM     20  C   UNL     1     150.428 161.992 145.802  1.00  0.00     0.034 A 
ATOM     21  O   UNL     1     148.077 161.468 148.415  1.00  0.00    -0.243 OA
ATOM     22  N   UNL     1     148.349 161.515 147.059  1.00  0.00    -0.050 NA
ENDBRANCH   4  14
BRANCH   5  23
ATOM     23  C   UNL     1     151.649 164.952 149.949  1.00  0.00     0.337 C 
ATOM     24  O   UNL     1     150.780 165.348 149.188  1.00  0.00    -0.246 OA
BRANCH  23  25
ATOM     25  O   UNL     1     152.751 165.634 150.344  1.00  0.00    -0.460 OA
BRANCH  25  26
ATOM     26  C   UNL     1     152.535 166.985 150.787  1.00  0.00     0.170 C 
ATOM     27  C   UNL     1     153.269 167.144 152.113  1.00  0.00     0.052 C 
ATOM     28  C   UNL     1     153.078 167.956 149.746  1.00  0.00     0.052 C 
ENDBRANCH  25  26
ENDBRANCH  23  25
ENDBRANCH   5  23
TORSDOF 6
ENDMDL
MODEL 17
REMARK VINA RESULT:    -6.326      9.577     12.518
REMARK INTER + INTRA:          -9.791
REMARK INTER:                  -8.074
REMARK INTRA:                  -1.717
REMARK UNBOUND:                -1.246
REMARK SMILES COC(=O)C1=C(C)NC(C)=C(C(=O)OC(C)C)[C@@H]1c1cccc2nonc12
REMARK SMILES IDX 7 1 6 2 5 3 18 4 11 5 9 6 8 7 10 8 3 10 4 11 2 12 1 13 19 14
REMARK SMILES IDX 20 15 27 16 21 17 26 18 23 19 22 20 25 21 24 22 12 23 13 24
REMARK SMILES IDX 14 25 15 26 16 27 17 28
REMARK H PARENT 8 9
ROOT
ATOM      1  C   UNL     1     154.714 158.563 145.720  1.00  0.00     0.065 C 
ATOM      2  C   UNL     1     153.899 158.992 146.914  1.00  0.00     0.023 C 
ATOM      3  C   UNL     1     153.333 158.145 147.804  1.00  0.00     0.068 C 
ATOM      4  C   UNL     1     152.515 158.664 148.983  1.00  0.00     0.100 C 
ATOM      5  C   UNL     1     152.357 160.180 148.983  1.00  0.00     0.068 C 
ATOM      6  C   UNL     1     152.943 160.953 148.042  1.00  0.00     0.023 C 
ATOM      7  N   UNL     1     153.709 160.359 147.053  1.00  0.00    -0.362 N 
ATOM      8  C   UNL     1     152.791 162.449 147.945  1.00  0.00     0.065 C 
ATOM      9  H   UNL     1     154.181 160.969 146.390  1.00  0.00     0.166 HD
ENDROOT
BRANCH   3  10
ATOM     10  C   UNL     1     153.509 156.680 147.693  1.00  0.00     0.336 C 
ATOM     11  O   UNL     1     154.520 156.070 148.006  1.00  0.00    -0.246 OA
BRANCH  10  12
ATOM     12  O   UNL     1     152.374 156.127 147.190  1.00  0.00    -0.466 OA
ATOM     13  C   UNL     1     151.797 155.129 148.031  1.00  0.00     0.282 C 
ENDBRANCH  10  12
ENDBRANCH   3  10
BRANCH   4  14
ATOM     14  C   UNL     1     153.073 158.171 150.312  1.00  0.00    -0.004 A 
ATOM     15  C   UNL     1     152.332 157.277 151.133  1.00  0.00     0.007 A 
ATOM     16  C   UNL     1     154.324 158.533 150.873  1.00  0.00     0.139 A 
ATOM     17  C   UNL     1     152.786 156.784 152.385  1.00  0.00     0.003 A 
ATOM     18  N   UNL     1     155.270 159.353 150.395  1.00  0.00    -0.049 NA
ATOM     19  C   UNL     1     154.786 158.024 152.160  1.00  0.00     0.135 A 
ATOM     20  C   UNL     1     154.026 157.136 152.942  1.00  0.00     0.034 A 
ATOM     21  O   UNL     1     156.285 159.356 151.332  1.00  0.00    -0.243 OA
ATOM     22  N   UNL     1     155.990 158.548 152.415  1.00  0.00    -0.050 NA
ENDBRANCH   4  14
BRANCH   5  23
ATOM     23  C   UNL     1     151.496 160.711 150.061  1.00  0.00     0.337 C 
ATOM     24  O   UNL     1     151.920 161.408 150.970  1.00  0.00    -0.246 OA
BRANCH  23  25
ATOM     25  O   UNL     1     150.201 160.393 149.821  1.00  0.00    -0.460 OA
BRANCH  25  26
ATOM     26  C   UNL     1     149.507 159.718 150.884  1.00  0.00     0.170 C 
ATOM     27  C   UNL     1     148.453 160.682 151.414  1.00  0.00     0.052 C 
ATOM     28  C   UNL     1     148.861 158.448 150.344  1.00  0.00     0.052 C 
ENDBRANCH  25  26
ENDBRANCH  23  25
ENDBRANCH   5  23
TORSDOF 6
ENDMDL
MODEL 18
REMARK VINA RESULT:    -6.270      6.513     10.234
REMARK INTER + INTRA:          -9.715
REMARK INTER:                  -8.198
REMARK INTRA:                  -1.517
REMARK UNBOUND:                -1.246
REMARK SMILES COC(=O)C1=C(C)NC(C)=C(C(=O)OC(C)C)[C@@H]1c1cccc2nonc12
REMARK SMILES IDX 7 1 6 2 5 3 18 4 11 5 9 6 8 7 10 8 3 10 4 11 2 12 1 13 19 14
REMARK SMILES IDX 20 15 27 16 21 17 26 18 23 19 22 20 25 21 24 22 12 23 13 24
REMARK SMILES IDX 14 25 15 26 16 27 17 28
REMARK H PARENT 8 9
ROOT
ATOM      1  C   UNL     1     150.232 158.291 150.526  1.00  0.00     0.065 C 
ATOM      2  C   UNL     1     151.256 159.276 150.021  1.00  0.00     0.023 C 
ATOM      3  C   UNL     1     150.965 160.410 149.344  1.00  0.00     0.068 C 
ATOM      4  C   UNL     1     152.065 161.349 148.860  1.00  0.00     0.100 C 
ATOM      5  C   UNL     1     153.468 160.832 149.152  1.00  0.00     0.068 C 
ATOM      6  C   UNL     1     153.672 159.675 149.820  1.00  0.00     0.023 C 
ATOM      7  N   UNL     1     152.581 158.940 150.256  1.00  0.00    -0.362 N 
ATOM      8  C   UNL     1     155.024 159.072 150.101  1.00  0.00     0.065 C 
ATOM      9  H   UNL     1     152.764 158.101 150.802  1.00  0.00     0.166 HD
ENDROOT
BRANCH   3  10
ATOM     10  C   UNL     1     149.565 160.806 149.070  1.00  0.00     0.336 C 
ATOM     11  O   UNL     1     148.787 161.247 149.901  1.00  0.00    -0.246 OA
BRANCH  10  12
ATOM     12  O   UNL     1     149.288 160.600 147.756  1.00  0.00    -0.466 OA
ATOM     13  C   UNL     1     148.403 159.506 147.518  1.00  0.00     0.282 C 
ENDBRANCH  10  12
ENDBRANCH   3  10
BRANCH   4  14
ATOM     14  C   UNL     1     151.877 162.759 149.405  1.00  0.00    -0.004 A 
ATOM     15  C   UNL     1     151.606 163.853 148.537  1.00  0.00     0.007 A 
ATOM     16  C   UNL     1     151.959 163.141 150.768  1.00  0.00     0.139 A 
ATOM     17  C   UNL     1     151.427 165.191 148.974  1.00  0.00     0.003 A 
ATOM     18  N   UNL     1     152.208 162.392 151.851  1.00  0.00    -0.049 NA
ATOM     19  C   UNL     1     151.776 164.518 151.213  1.00  0.00     0.135 A 
ATOM     20  C   UNL     1     151.503 165.573 150.323  1.00  0.00     0.034 A 
ATOM     21  O   UNL     1     152.177 163.254 152.930  1.00  0.00    -0.243 OA
ATOM     22  N   UNL     1     151.917 164.557 152.543  1.00  0.00    -0.050 NA
ENDBRANCH   4  14
BRANCH   5  23
ATOM     23  C   UNL     1     154.561 161.672 148.619  1.00  0.00     0.337 C 
ATOM     24  O   UNL     1     155.408 162.194 149.328  1.00  0.00    -0.246 OA
BRANCH  23  25
ATOM     25  O   UNL     1     154.522 161.682 147.265  1.00  0.00    -0.460 OA
BRANCH  25  26
ATOM     26  C   UNL     1     154.893 160.455 146.612  1.00  0.00     0.170 C 
ATOM     27  C   UNL     1     154.148 160.413 145.283  1.00  0.00     0.052 C 
ATOM     28  C   UNL     1     156.401 160.432 146.390  1.00  0.00     0.052 C 
ENDBRANCH  25  26
ENDBRANCH  23  25
ENDBRANCH   5  23
TORSDOF 6
ENDMDL
MODEL 19
REMARK VINA RESULT:    -6.263      7.563     11.057
REMARK INTER + INTRA:          -9.706
REMARK INTER:                  -8.055
REMARK INTRA:                  -1.651
REMARK UNBOUND:                -1.246
REMARK SMILES COC(=O)C1=C(C)NC(C)=C(C(=O)OC(C)C)[C@@H]1c1cccc2nonc12
REMARK SMILES IDX 7 1 6 2 5 3 18 4 11 5 9 6 8 7 10 8 3 10 4 11 2 12 1 13 19 14
REMARK SMILES IDX 20 15 27 16 21 17 26 18 23 19 22 20 25 21 24 22 12 23 13 24
REMARK SMILES IDX 14 25 15 26 16 27 17 28
REMARK H PARENT 8 9
ROOT
ATOM      1  C   UNL     1     156.041 159.132 149.730  1.00  0.00     0.065 C 
ATOM      2  C   UNL     1     154.870 159.893 149.161  1.00  0.00     0.023 C 
ATOM      3  C   UNL     1     153.614 159.859 149.661  1.00  0.00     0.068 C 
ATOM      4  C   UNL     1     152.482 160.654 149.018  1.00  0.00     0.100 C 
ATOM      5  C   UNL     1     152.909 161.392 147.754  1.00  0.00     0.068 C 
ATOM      6  C   UNL     1     154.186 161.358 147.312  1.00  0.00     0.023 C 
ATOM      7  N   UNL     1     155.134 160.640 148.023  1.00  0.00    -0.362 N 
ATOM      8  C   UNL     1     154.673 162.017 146.047  1.00  0.00     0.065 C 
ATOM      9  H   UNL     1     156.096 160.675 147.696  1.00  0.00     0.166 HD
ENDROOT
BRANCH   3  10
ATOM     10  C   UNL     1     153.288 159.074 150.873  1.00  0.00     0.336 C 
ATOM     11  O   UNL     1     153.510 159.431 152.019  1.00  0.00    -0.246 OA
BRANCH  10  12
ATOM     12  O   UNL     1     152.708 157.901 150.507  1.00  0.00    -0.466 OA
ATOM     13  C   UNL     1     153.391 156.745 150.991  1.00  0.00     0.282 C 
ENDBRANCH  10  12
ENDBRANCH   3  10
BRANCH   4  14
ATOM     14  C   UNL     1     151.830 161.605 150.014  1.00  0.00    -0.004 A 
ATOM     15  C   UNL     1     152.518 162.756 150.488  1.00  0.00     0.007 A 
ATOM     16  C   UNL     1     150.536 161.461 150.574  1.00  0.00     0.139 A 
ATOM     17  C   UNL     1     151.975 163.679 151.421  1.00  0.00     0.003 A 
ATOM     18  N   UNL     1     149.619 160.505 150.373  1.00  0.00    -0.049 NA
ATOM     19  C   UNL     1     149.983 162.412 151.533  1.00  0.00     0.135 A 
ATOM     20  C   UNL     1     150.692 163.544 151.975  1.00  0.00     0.034 A 
ATOM     21  O   UNL     1     148.535 160.840 151.162  1.00  0.00    -0.243 OA
ATOM     22  N   UNL     1     148.756 162.004 151.876  1.00  0.00    -0.050 NA
ENDBRANCH   4  14
BRANCH   5  23
ATOM     23  C   UNL     1     151.818 162.102 147.055  1.00  0.00     0.337 C 
ATOM     24  O   UNL     1     151.759 163.319 146.973  1.00  0.00    -0.246 OA
BRANCH  23  25
ATOM     25  O   UNL     1     150.989 161.210 146.460  1.00  0.00    -0.460 OA
BRANCH  25  26
ATOM     26  C   UNL     1     151.290 160.879 145.093  1.00  0.00     0.170 C 
ATOM     27  C   UNL     1     151.581 159.384 145.049  1.00  0.00     0.052 C 
ATOM     28  C   UNL     1     150.097 161.227 144.211  1.00  0.00     0.052 C 
ENDBRANCH  25  26
ENDBRANCH  23  25
ENDBRANCH   5  23
TORSDOF 6
ENDMDL
MODEL 20
REMARK VINA RESULT:    -6.223      7.380     10.306
REMARK INTER + INTRA:          -9.651
REMARK INTER:                  -8.097
REMARK INTRA:                  -1.555
REMARK UNBOUND:                -1.246
REMARK SMILES COC(=O)C1=C(C)NC(C)=C(C(=O)OC(C)C)[C@@H]1c1cccc2nonc12
REMARK SMILES IDX 7 1 6 2 5 3 18 4 11 5 9 6 8 7 10 8 3 10 4 11 2 12 1 13 19 14
REMARK SMILES IDX 20 15 27 16 21 17 26 18 23 19 22 20 25 21 24 22 12 23 13 24
REMARK SMILES IDX 14 25 15 26 16 27 17 28
REMARK H PARENT 8 9
ROOT
ATOM      1  C   UNL     1     151.805 157.414 150.813  1.00  0.00     0.065 C 
ATOM      2  C   UNL     1     152.032 158.850 150.413  1.00  0.00     0.023 C 
ATOM      3  C   UNL     1     153.246 159.437 150.306  1.00  0.00     0.068 C 
ATOM      4  C   UNL     1     153.386 160.902 149.903  1.00  0.00     0.100 C 
ATOM      5  C   UNL     1     152.047 161.606 149.725  1.00  0.00     0.068 C 
ATOM      6  C   UNL     1     150.875 160.948 149.869  1.00  0.00     0.023 C 
ATOM      7  N   UNL     1     150.887 159.599 150.184  1.00  0.00    -0.362 N 
ATOM      8  C   UNL     1     149.514 161.585 149.760  1.00  0.00     0.065 C 
ATOM      9  H   UNL     1     149.992 159.117 150.235  1.00  0.00     0.166 HD
ENDROOT
BRANCH   3  10
ATOM     10  C   UNL     1     154.493 158.676 150.543  1.00  0.00     0.336 C 
ATOM     11  O   UNL     1     154.979 157.869 149.766  1.00  0.00    -0.246 OA
BRANCH  10  12
ATOM     12  O   UNL     1     155.004 159.016 151.755  1.00  0.00    -0.466 OA
ATOM     13  C   UNL     1     155.594 157.923 152.459  1.00  0.00     0.282 C 
ENDBRANCH  10  12
ENDBRANCH   3  10
BRANCH   4  14
ATOM     14  C   UNL     1     154.258 161.060 148.664  1.00  0.00    -0.004 A 
ATOM     15  C   UNL     1     155.488 161.771 148.717  1.00  0.00     0.007 A 
ATOM     16  C   UNL     1     153.962 160.560 147.370  1.00  0.00     0.139 A 
ATOM     17  C   UNL     1     156.346 161.964 147.602  1.00  0.00     0.003 A 
ATOM     18  N   UNL     1     152.899 159.862 146.947  1.00  0.00    -0.049 NA
ATOM     19  C   UNL     1     154.845 160.761 146.227  1.00  0.00     0.135 A 
ATOM     20  C   UNL     1     156.059 161.466 146.320  1.00  0.00     0.034 A 
ATOM     21  O   UNL     1     153.105 159.627 145.601  1.00  0.00    -0.243 OA
ATOM     22  N   UNL     1     154.293 160.180 145.156  1.00  0.00    -0.050 NA
ENDBRANCH   4  14
BRANCH   5  23
ATOM     23  C   UNL     1     152.143 163.049 149.420  1.00  0.00     0.337 C 
ATOM     24  O   UNL     1     151.790 163.531 148.355  1.00  0.00    -0.246 OA
BRANCH  23  25
ATOM     25  O   UNL     1     152.575 163.726 150.511  1.00  0.00    -0.460 OA
BRANCH  25  26
ATOM     26  C   UNL     1     151.553 164.282 151.358  1.00  0.00     0.170 C 
ATOM     27  C   UNL     1     151.807 163.760 152.767  1.00  0.00     0.052 C 
ATOM     28  C   UNL     1     151.631 165.803 151.319  1.00  0.00     0.052 C 
ENDBRANCH  25  26
ENDBRANCH  23  25
ENDBRANCH   5  23
TORSDOF 6
ENDMDL
