MODEL 1
REMARK VINA RESULT:    -8.674      0.000      0.000
REMARK INTER + INTRA:         -10.587
REMARK INTER:                 -10.195
REMARK INTRA:                  -0.392
REMARK UNBOUND:                -0.392
REMARK SMILES CN1C(N)=N[C@](C)(c2cc(NC(=O)c3ccc(F)cn3)ccc2F)CS1(=O)=O
REMARK SMILES IDX 8 1 9 2 10 3 21 4 22 5 23 6 24 7 6 8 25 9 5 10 26 11 3 12
REMARK SMILES IDX 27 13 2 14 28 15 4 16 7 17 1 18 11 21 12 22 13 23 14 25
REMARK SMILES IDX 20 26 15 27 19 28 16 29 17 30 18 31
REMARK H PARENT 4 19 4 20 11 24
ROOT
ATOM      1  C   UNL     1      18.759  11.296  25.699  1.00  0.00     0.018 A 
ATOM      2  C   UNL     1      18.463  10.418  24.658  1.00  0.00     0.035 A 
ATOM      3  C   UNL     1      17.329  10.545  23.888  1.00  0.00     0.042 A 
ATOM      4  C   UNL     1      16.416  11.560  24.143  1.00  0.00     0.029 A 
ATOM      5  C   UNL     1      16.695  12.444  25.171  1.00  0.00     0.042 A 
ATOM      6  C   UNL     1      17.853  12.323  25.915  1.00  0.00     0.129 A 
ATOM      7  F   UNL     1      18.118  13.220  26.899  1.00  0.00    -0.207 F 
ENDROOT
BRANCH   1   8
ATOM      8  C   UNL     1      20.022  11.131  26.531  1.00  0.00     0.105 C 
ATOM      9  C   UNL     1      20.896  12.362  26.621  1.00  0.00     0.195 C 
ATOM     10  N   UNL     1      20.817   9.982  26.099  1.00  0.00    -0.240 NA
ATOM     11  S   UNL     1      21.526  12.803  25.021  1.00  0.00     0.239 S 
ATOM     12  C   UNL     1      21.622  10.054  25.085  1.00  0.00     0.205 C 
ATOM     13  O   UNL     1      22.785  13.489  25.247  1.00  0.00    -0.206 OA
ATOM     14  N   UNL     1      21.899  11.248  24.383  1.00  0.00    -0.243 N 
ATOM     15  O   UNL     1      20.490  13.285  24.161  1.00  0.00    -0.206 OA
ATOM     16  N   UNL     1      22.305   8.963  24.615  1.00  0.00    -0.369 N 
ATOM     17  C   UNL     1      19.626  10.756  27.961  1.00  0.00     0.044 C 
ATOM     18  C   UNL     1      22.720  11.290  23.157  1.00  0.00     0.167 C 
ATOM     19  H   UNL     1      22.179   8.084  25.040  1.00  0.00     0.159 HD
ATOM     20  H   UNL     1      22.922   9.059  23.854  1.00  0.00     0.159 HD
ENDBRANCH   1   8
BRANCH   3  21
ATOM     21  N   UNL     1      17.149   9.595  22.875  1.00  0.00    -0.321 N 
ATOM     22  C   UNL     1      16.427   8.416  22.925  1.00  0.00     0.274 C 
ATOM     23  O   UNL     1      15.921   7.941  23.934  1.00  0.00    -0.267 OA
ATOM     24  H   UNL     1      17.592   9.791  22.018  1.00  0.00     0.170 HD
BRANCH  22  25
ATOM     25  C   UNL     1      16.249   7.727  21.623  1.00  0.00     0.128 A 
ATOM     26  N   UNL     1      17.363   7.480  20.926  1.00  0.00    -0.248 NA
ATOM     27  C   UNL     1      14.981   7.367  21.199  1.00  0.00     0.037 A 
ATOM     28  C   UNL     1      17.226   6.860  19.742  1.00  0.00     0.151 A 
ATOM     29  C   UNL     1      14.874   6.725  19.978  1.00  0.00     0.043 A 
ATOM     30  C   UNL     1      16.008   6.470  19.233  1.00  0.00     0.141 A 
ATOM     31  F   UNL     1      15.954   5.841  18.047  1.00  0.00    -0.205 F 
ENDBRANCH  22  25
ENDBRANCH   3  21
TORSDOF 3
ENDMDL
MODEL 2
REMARK VINA RESULT:    -8.447      5.815      9.440
REMARK INTER + INTRA:         -10.320
REMARK INTER:                 -10.830
REMARK INTRA:                   0.509
REMARK UNBOUND:                -0.392
REMARK SMILES CN1C(N)=N[C@](C)(c2cc(NC(=O)c3ccc(F)cn3)ccc2F)CS1(=O)=O
REMARK SMILES IDX 8 1 9 2 10 3 21 4 22 5 23 6 24 7 6 8 25 9 5 10 26 11 3 12
REMARK SMILES IDX 27 13 2 14 28 15 4 16 7 17 1 18 11 21 12 22 13 23 14 25
REMARK SMILES IDX 20 26 15 27 19 28 16 29 17 30 18 31
REMARK H PARENT 4 19 4 20 11 24
ROOT
ATOM      1  C   UNL     1      16.495   5.863  21.034  1.00  0.00     0.018 A 
ATOM      2  C   UNL     1      17.330   5.488  22.085  1.00  0.00     0.035 A 
ATOM      3  C   UNL     1      18.702   5.522  21.984  1.00  0.00     0.042 A 
ATOM      4  C   UNL     1      19.310   5.918  20.799  1.00  0.00     0.029 A 
ATOM      5  C   UNL     1      18.497   6.297  19.746  1.00  0.00     0.042 A 
ATOM      6  C   UNL     1      17.122   6.289  19.873  1.00  0.00     0.129 A 
ATOM      7  F   UNL     1      16.347   6.693  18.834  1.00  0.00    -0.207 F 
ENDROOT
BRANCH   1   8
ATOM      8  C   UNL     1      14.982   5.818  21.178  1.00  0.00     0.105 C 
ATOM      9  C   UNL     1      14.450   4.658  21.991  1.00  0.00     0.195 C 
ATOM     10  N   UNL     1      14.305   5.874  19.883  1.00  0.00    -0.240 NA
ATOM     11  S   UNL     1      14.823   3.114  21.200  1.00  0.00     0.239 S 
ATOM     12  C   UNL     1      14.159   4.818  19.144  1.00  0.00     0.205 C 
ATOM     13  O   UNL     1      13.790   2.179  21.610  1.00  0.00    -0.206 OA
ATOM     14  N   UNL     1      14.522   3.516  19.553  1.00  0.00    -0.243 N 
ATOM     15  O   UNL     1      16.223   2.829  21.232  1.00  0.00    -0.206 OA
ATOM     16  N   UNL     1      13.607   4.873  17.892  1.00  0.00    -0.369 N 
ATOM     17  C   UNL     1      14.512   7.102  21.867  1.00  0.00     0.044 C 
ATOM     18  C   UNL     1      14.465   2.345  18.656  1.00  0.00     0.167 C 
ATOM     19  H   UNL     1      13.321   5.738  17.518  1.00  0.00     0.159 HD
ATOM     20  H   UNL     1      13.495   4.048  17.366  1.00  0.00     0.159 HD
ENDBRANCH   1   8
BRANCH   3  21
ATOM     21  N   UNL     1      19.425   5.117  23.113  1.00  0.00    -0.321 N 
ATOM     22  C   UNL     1      19.319   5.583  24.411  1.00  0.00     0.274 C 
ATOM     23  O   UNL     1      18.644   6.542  24.763  1.00  0.00    -0.267 OA
ATOM     24  H   UNL     1      20.094   4.410  22.964  1.00  0.00     0.170 HD
BRANCH  22  25
ATOM     25  C   UNL     1      20.073   4.808  25.426  1.00  0.00     0.128 A 
ATOM     26  N   UNL     1      20.797   3.781  24.970  1.00  0.00    -0.248 NA
ATOM     27  C   UNL     1      20.008   5.170  26.761  1.00  0.00     0.037 A 
ATOM     28  C   UNL     1      21.485   3.061  25.871  1.00  0.00     0.151 A 
ATOM     29  C   UNL     1      20.733   4.412  27.664  1.00  0.00     0.043 A 
ATOM     30  C   UNL     1      21.480   3.339  27.219  1.00  0.00     0.141 A 
ATOM     31  F   UNL     1      22.206   2.581  28.058  1.00  0.00    -0.205 F 
ENDBRANCH  22  25
ENDBRANCH   3  21
TORSDOF 3
ENDMDL
MODEL 3
REMARK VINA RESULT:    -8.397      4.296      5.719
REMARK INTER + INTRA:         -10.262
REMARK INTER:                 -10.058
REMARK INTRA:                  -0.204
REMARK UNBOUND:                -0.392
REMARK SMILES CN1C(N)=N[C@](C)(c2cc(NC(=O)c3ccc(F)cn3)ccc2F)CS1(=O)=O
REMARK SMILES IDX 8 1 9 2 10 3 21 4 22 5 23 6 24 7 6 8 25 9 5 10 26 11 3 12
REMARK SMILES IDX 27 13 2 14 28 15 4 16 7 17 1 18 11 21 12 22 13 23 14 25
REMARK SMILES IDX 20 26 15 27 19 28 16 29 17 30 18 31
REMARK H PARENT 4 19 4 20 11 24
ROOT
ATOM      1  C   UNL     1      19.260  11.720  25.888  1.00  0.00     0.018 A 
ATOM      2  C   UNL     1      19.429  10.376  26.217  1.00  0.00     0.035 A 
ATOM      3  C   UNL     1      20.371   9.581  25.604  1.00  0.00     0.042 A 
ATOM      4  C   UNL     1      21.185  10.098  24.604  1.00  0.00     0.029 A 
ATOM      5  C   UNL     1      21.033  11.432  24.267  1.00  0.00     0.042 A 
ATOM      6  C   UNL     1      20.106  12.226  24.913  1.00  0.00     0.129 A 
ATOM      7  F   UNL     1      19.998  13.539  24.584  1.00  0.00    -0.207 F 
ENDROOT
BRANCH   1   8
ATOM      8  C   UNL     1      18.212  12.574  26.586  1.00  0.00     0.105 C 
ATOM      9  C   UNL     1      18.661  13.972  26.947  1.00  0.00     0.195 C 
ATOM     10  N   UNL     1      17.655  11.906  27.761  1.00  0.00    -0.240 NA
ATOM     11  S   UNL     1      19.985  13.921  28.128  1.00  0.00     0.239 S 
ATOM     12  C   UNL     1      18.268  11.915  28.905  1.00  0.00     0.205 C 
ATOM     13  O   UNL     1      19.909  15.154  28.890  1.00  0.00    -0.206 OA
ATOM     14  N   UNL     1      19.447  12.651  29.158  1.00  0.00    -0.243 N 
ATOM     15  O   UNL     1      21.188  13.406  27.550  1.00  0.00    -0.206 OA
ATOM     16  N   UNL     1      17.803  11.221  29.989  1.00  0.00    -0.369 N 
ATOM     17  C   UNL     1      16.998  12.716  25.664  1.00  0.00     0.044 C 
ATOM     18  C   UNL     1      20.201  12.553  30.424  1.00  0.00     0.167 C 
ATOM     19  H   UNL     1      16.985  10.678  29.911  1.00  0.00     0.159 HD
ATOM     20  H   UNL     1      18.285  11.266  30.847  1.00  0.00     0.159 HD
ENDBRANCH   1   8
BRANCH   3  21
ATOM     21  N   UNL     1      20.436   8.247  26.025  1.00  0.00    -0.321 N 
ATOM     22  C   UNL     1      19.680   7.173  25.591  1.00  0.00     0.274 C 
ATOM     23  O   UNL     1      18.718   7.248  24.837  1.00  0.00    -0.267 OA
ATOM     24  H   UNL     1      21.106   8.047  26.719  1.00  0.00     0.170 HD
BRANCH  22  25
ATOM     25  C   UNL     1      20.128   5.845  26.074  1.00  0.00     0.128 A 
ATOM     26  N   UNL     1      20.599   5.004  25.147  1.00  0.00    -0.248 NA
ATOM     27  C   UNL     1      20.055   5.539  27.422  1.00  0.00     0.037 A 
ATOM     28  C   UNL     1      21.008   3.794  25.561  1.00  0.00     0.151 A 
ATOM     29  C   UNL     1      20.489   4.287  27.819  1.00  0.00     0.043 A 
ATOM     30  C   UNL     1      20.969   3.396  26.878  1.00  0.00     0.141 A 
ATOM     31  F   UNL     1      21.410   2.172  27.217  1.00  0.00    -0.205 F 
ENDBRANCH  22  25
ENDBRANCH   3  21
TORSDOF 3
ENDMDL
MODEL 4
REMARK VINA RESULT:    -8.331      5.590      9.193
REMARK INTER + INTRA:         -10.183
REMARK INTER:                  -9.854
REMARK INTRA:                  -0.329
REMARK UNBOUND:                -0.392
REMARK SMILES CN1C(N)=N[C@](C)(c2cc(NC(=O)c3ccc(F)cn3)ccc2F)CS1(=O)=O
REMARK SMILES IDX 8 1 9 2 10 3 21 4 22 5 23 6 24 7 6 8 25 9 5 10 26 11 3 12
REMARK SMILES IDX 27 13 2 14 28 15 4 16 7 17 1 18 11 21 12 22 13 23 14 25
REMARK SMILES IDX 20 26 15 27 19 28 16 29 17 30 18 31
REMARK H PARENT 4 19 4 20 11 24
ROOT
ATOM      1  C   UNL     1      24.222  11.760  20.469  1.00  0.00     0.018 A 
ATOM      2  C   UNL     1      24.019  12.211  21.773  1.00  0.00     0.035 A 
ATOM      3  C   UNL     1      23.415  11.434  22.735  1.00  0.00     0.042 A 
ATOM      4  C   UNL     1      22.960  10.158  22.425  1.00  0.00     0.029 A 
ATOM      5  C   UNL     1      23.156   9.693  21.136  1.00  0.00     0.042 A 
ATOM      6  C   UNL     1      23.793  10.472  20.190  1.00  0.00     0.129 A 
ATOM      7  F   UNL     1      24.000   9.981  18.942  1.00  0.00    -0.207 F 
ENDROOT
BRANCH   1   8
ATOM      8  C   UNL     1      24.896  12.643  19.430  1.00  0.00     0.105 C 
ATOM      9  C   UNL     1      26.142  12.057  18.803  1.00  0.00     0.195 C 
ATOM     10  N   UNL     1      25.175  13.982  19.944  1.00  0.00    -0.240 NA
ATOM     11  S   UNL     1      27.412  11.836  20.023  1.00  0.00     0.239 S 
ATOM     12  C   UNL     1      26.219  14.229  20.674  1.00  0.00     0.205 C 
ATOM     13  O   UNL     1      28.680  11.928  19.322  1.00  0.00    -0.206 OA
ATOM     14  N   UNL     1      27.232  13.282  20.941  1.00  0.00    -0.243 N 
ATOM     15  O   UNL     1      27.080  10.799  20.950  1.00  0.00    -0.206 OA
ATOM     16  N   UNL     1      26.445  15.457  21.235  1.00  0.00    -0.369 N 
ATOM     17  C   UNL     1      23.906  12.911  18.293  1.00  0.00     0.044 C 
ATOM     18  C   UNL     1      28.348  13.538  21.873  1.00  0.00     0.167 C 
ATOM     19  H   UNL     1      25.794  16.185  21.105  1.00  0.00     0.159 HD
ATOM     20  H   UNL     1      27.258  15.613  21.768  1.00  0.00     0.159 HD
ENDBRANCH   1   8
BRANCH   3  21
ATOM     21  N   UNL     1      23.268  12.007  24.005  1.00  0.00    -0.321 N 
ATOM     22  C   UNL     1      22.309  12.907  24.433  1.00  0.00     0.274 C 
ATOM     23  O   UNL     1      21.488  13.458  23.712  1.00  0.00    -0.267 OA
ATOM     24  H   UNL     1      23.933  11.734  24.678  1.00  0.00     0.170 HD
BRANCH  22  25
ATOM     25  C   UNL     1      22.292  13.167  25.893  1.00  0.00     0.128 A 
ATOM     26  N   UNL     1      23.311  13.883  26.380  1.00  0.00    -0.248 NA
ATOM     27  C   UNL     1      21.252  12.684  26.669  1.00  0.00     0.037 A 
ATOM     28  C   UNL     1      23.319  14.127  27.701  1.00  0.00     0.151 A 
ATOM     29  C   UNL     1      21.285  12.957  28.025  1.00  0.00     0.043 A 
ATOM     30  C   UNL     1      22.334  13.684  28.554  1.00  0.00     0.141 A 
ATOM     31  F   UNL     1      22.404  13.982  29.863  1.00  0.00    -0.205 F 
ENDBRANCH  22  25
ENDBRANCH   3  21
TORSDOF 3
ENDMDL
MODEL 5
REMARK VINA RESULT:    -8.176      5.970      9.423
REMARK INTER + INTRA:         -10.002
REMARK INTER:                 -10.648
REMARK INTRA:                   0.646
REMARK UNBOUND:                -0.392
REMARK SMILES CN1C(N)=N[C@](C)(c2cc(NC(=O)c3ccc(F)cn3)ccc2F)CS1(=O)=O
REMARK SMILES IDX 8 1 9 2 10 3 21 4 22 5 23 6 24 7 6 8 25 9 5 10 26 11 3 12
REMARK SMILES IDX 27 13 2 14 28 15 4 16 7 17 1 18 11 21 12 22 13 23 14 25
REMARK SMILES IDX 20 26 15 27 19 28 16 29 17 30 18 31
REMARK H PARENT 4 19 4 20 11 24
ROOT
ATOM      1  C   UNL     1      17.437   5.879  22.330  1.00  0.00     0.018 A 
ATOM      2  C   UNL     1      18.175   5.299  23.361  1.00  0.00     0.035 A 
ATOM      3  C   UNL     1      19.549   5.222  23.329  1.00  0.00     0.042 A 
ATOM      4  C   UNL     1      20.256   5.710  22.237  1.00  0.00     0.029 A 
ATOM      5  C   UNL     1      19.540   6.293  21.207  1.00  0.00     0.042 A 
ATOM      6  C   UNL     1      18.164   6.392  21.267  1.00  0.00     0.129 A 
ATOM      7  F   UNL     1      17.487   6.994  20.256  1.00  0.00    -0.207 F 
ENDROOT
BRANCH   1   8
ATOM      8  C   UNL     1      15.919   5.951  22.396  1.00  0.00     0.105 C 
ATOM      9  C   UNL     1      15.271   4.967  23.344  1.00  0.00     0.195 C 
ATOM     10  N   UNL     1      15.307   5.851  21.072  1.00  0.00    -0.240 NA
ATOM     11  S   UNL     1      15.569   3.299  22.815  1.00  0.00     0.239 S 
ATOM     12  C   UNL     1      15.121   4.705  20.493  1.00  0.00     0.205 C 
ATOM     13  O   UNL     1      14.456   2.505  23.303  1.00  0.00    -0.206 OA
ATOM     14  N   UNL     1      15.372   3.461  21.113  1.00  0.00    -0.243 N 
ATOM     15  O   UNL     1      16.943   2.935  22.967  1.00  0.00    -0.206 OA
ATOM     16  N   UNL     1      14.631   4.602  19.218  1.00  0.00    -0.369 N 
ATOM     17  C   UNL     1      15.511   7.353  22.857  1.00  0.00     0.044 C 
ATOM     18  C   UNL     1      15.273   2.172  20.400  1.00  0.00     0.167 C 
ATOM     19  H   UNL     1      14.424   5.415  18.703  1.00  0.00     0.159 HD
ATOM     20  H   UNL     1      14.485   3.715  18.817  1.00  0.00     0.159 HD
ENDBRANCH   1   8
BRANCH   3  21
ATOM     21  N   UNL     1      20.169   4.612  24.427  1.00  0.00    -0.321 N 
ATOM     22  C   UNL     1      21.268   3.771  24.433  1.00  0.00     0.274 C 
ATOM     23  O   UNL     1      21.810   3.313  23.436  1.00  0.00    -0.267 OA
ATOM     24  H   UNL     1      19.772   4.807  25.307  1.00  0.00     0.170 HD
BRANCH  22  25
ATOM     25  C   UNL     1      21.817   3.456  25.775  1.00  0.00     0.128 A 
ATOM     26  N   UNL     1      22.903   2.677  25.803  1.00  0.00    -0.248 NA
ATOM     27  C   UNL     1      21.212   3.973  26.908  1.00  0.00     0.037 A 
ATOM     28  C   UNL     1      23.416   2.375  27.007  1.00  0.00     0.151 A 
ATOM     29  C   UNL     1      21.767   3.649  28.133  1.00  0.00     0.043 A 
ATOM     30  C   UNL     1      22.882   2.835  28.189  1.00  0.00     0.141 A 
ATOM     31  F   UNL     1      23.461   2.501  29.355  1.00  0.00    -0.205 F 
ENDBRANCH  22  25
ENDBRANCH   3  21
TORSDOF 3
ENDMDL
MODEL 6
REMARK VINA RESULT:    -8.029      4.397      5.591
REMARK INTER + INTRA:          -9.829
REMARK INTER:                 -10.479
REMARK INTRA:                   0.650
REMARK UNBOUND:                -0.392
REMARK SMILES CN1C(N)=N[C@](C)(c2cc(NC(=O)c3ccc(F)cn3)ccc2F)CS1(=O)=O
REMARK SMILES IDX 8 1 9 2 10 3 21 4 22 5 23 6 24 7 6 8 25 9 5 10 26 11 3 12
REMARK SMILES IDX 27 13 2 14 28 15 4 16 7 17 1 18 11 21 12 22 13 23 14 25
REMARK SMILES IDX 20 26 15 27 19 28 16 29 17 30 18 31
REMARK H PARENT 4 19 4 20 11 24
ROOT
ATOM      1  C   UNL     1      18.721   7.394  22.395  1.00  0.00     0.018 A 
ATOM      2  C   UNL     1      18.020   6.640  21.455  1.00  0.00     0.035 A 
ATOM      3  C   UNL     1      16.712   6.911  21.122  1.00  0.00     0.042 A 
ATOM      4  C   UNL     1      16.029   7.951  21.740  1.00  0.00     0.029 A 
ATOM      5  C   UNL     1      16.711   8.712  22.673  1.00  0.00     0.042 A 
ATOM      6  C   UNL     1      18.033   8.450  22.974  1.00  0.00     0.129 A 
ATOM      7  F   UNL     1      18.688   9.230  23.871  1.00  0.00    -0.207 F 
ENDROOT
BRANCH   1   8
ATOM      8  C   UNL     1      20.167   7.072  22.739  1.00  0.00     0.105 C 
ATOM      9  C   UNL     1      20.504   5.598  22.774  1.00  0.00     0.195 C 
ATOM     10  N   UNL     1      20.591   7.714  23.983  1.00  0.00    -0.240 NA
ATOM     11  S   UNL     1      19.595   4.777  24.059  1.00  0.00     0.239 S 
ATOM     12  C   UNL     1      20.313   7.203  25.142  1.00  0.00     0.205 C 
ATOM     13  O   UNL     1      20.395   3.637  24.468  1.00  0.00    -0.206 OA
ATOM     14  N   UNL     1      19.693   5.946  25.319  1.00  0.00    -0.243 N 
ATOM     15  O   UNL     1      18.199   4.714  23.759  1.00  0.00    -0.206 OA
ATOM     16  N   UNL     1      20.626   7.838  26.315  1.00  0.00    -0.369 N 
ATOM     17  C   UNL     1      21.080   7.717  21.692  1.00  0.00     0.044 C 
ATOM     18  C   UNL     1      19.271   5.435  26.639  1.00  0.00     0.167 C 
ATOM     19  H   UNL     1      21.062   8.721  26.295  1.00  0.00     0.159 HD
ATOM     20  H   UNL     1      20.416   7.411  27.177  1.00  0.00     0.159 HD
ENDBRANCH   1   8
BRANCH   3  21
ATOM     21  N   UNL     1      16.122   6.074  20.165  1.00  0.00    -0.321 N 
ATOM     22  C   UNL     1      14.816   5.623  20.110  1.00  0.00     0.274 C 
ATOM     23  O   UNL     1      13.977   5.786  20.986  1.00  0.00    -0.267 OA
ATOM     24  H   UNL     1      16.713   5.770  19.439  1.00  0.00     0.170 HD
BRANCH  22  25
ATOM     25  C   UNL     1      14.440   4.923  18.858  1.00  0.00     0.128 A 
ATOM     26  N   UNL     1      14.697   3.611  18.812  1.00  0.00    -0.248 NA
ATOM     27  C   UNL     1      13.849   5.626  17.823  1.00  0.00     0.037 A 
ATOM     28  C   UNL     1      14.369   2.956  17.686  1.00  0.00     0.151 A 
ATOM     29  C   UNL     1      13.517   4.923  16.679  1.00  0.00     0.043 A 
ATOM     30  C   UNL     1      13.783   3.569  16.602  1.00  0.00     0.141 A 
ATOM     31  F   UNL     1      13.471   2.843  15.515  1.00  0.00    -0.205 F 
ENDBRANCH  22  25
ENDBRANCH   3  21
TORSDOF 3
ENDMDL
MODEL 7
REMARK VINA RESULT:    -8.022      3.074      7.658
REMARK INTER + INTRA:          -9.820
REMARK INTER:                  -9.714
REMARK INTRA:                  -0.106
REMARK UNBOUND:                -0.392
REMARK SMILES CN1C(N)=N[C@](C)(c2cc(NC(=O)c3ccc(F)cn3)ccc2F)CS1(=O)=O
REMARK SMILES IDX 8 1 9 2 10 3 21 4 22 5 23 6 24 7 6 8 25 9 5 10 26 11 3 12
REMARK SMILES IDX 27 13 2 14 28 15 4 16 7 17 1 18 11 21 12 22 13 23 14 25
REMARK SMILES IDX 20 26 15 27 19 28 16 29 17 30 18 31
REMARK H PARENT 4 19 4 20 11 24
ROOT
ATOM      1  C   UNL     1      16.599   7.626  21.498  1.00  0.00     0.018 A 
ATOM      2  C   UNL     1      17.442   8.503  22.180  1.00  0.00     0.035 A 
ATOM      3  C   UNL     1      16.965   9.589  22.879  1.00  0.00     0.042 A 
ATOM      4  C   UNL     1      15.603   9.863  22.909  1.00  0.00     0.029 A 
ATOM      5  C   UNL     1      14.751   9.001  22.241  1.00  0.00     0.042 A 
ATOM      6  C   UNL     1      15.241   7.898  21.570  1.00  0.00     0.129 A 
ATOM      7  F   UNL     1      14.382   7.052  20.947  1.00  0.00    -0.207 F 
ENDROOT
BRANCH   1   8
ATOM      8  C   UNL     1      17.156   6.434  20.737  1.00  0.00     0.105 C 
ATOM      9  C   UNL     1      16.585   5.092  21.140  1.00  0.00     0.195 C 
ATOM     10  N   UNL     1      18.617   6.390  20.778  1.00  0.00    -0.240 NA
ATOM     11  S   UNL     1      16.995   4.718  22.826  1.00  0.00     0.239 S 
ATOM     12  C   UNL     1      19.256   5.903  21.797  1.00  0.00     0.205 C 
ATOM     13  O   UNL     1      17.028   3.270  22.932  1.00  0.00    -0.206 OA
ATOM     14  N   UNL     1      18.624   5.271  22.891  1.00  0.00    -0.243 N 
ATOM     15  O   UNL     1      16.306   5.575  23.740  1.00  0.00    -0.206 OA
ATOM     16  N   UNL     1      20.622   5.936  21.887  1.00  0.00    -0.369 N 
ATOM     17  C   UNL     1      16.861   6.617  19.246  1.00  0.00     0.044 C 
ATOM     18  C   UNL     1      19.353   4.833  24.098  1.00  0.00     0.167 C 
ATOM     19  H   UNL     1      21.152   6.356  21.172  1.00  0.00     0.159 HD
ATOM     20  H   UNL     1      21.074   5.540  22.667  1.00  0.00     0.159 HD
ENDBRANCH   1   8
BRANCH   3  21
ATOM     21  N   UNL     1      17.918  10.392  23.518  1.00  0.00    -0.321 N 
ATOM     22  C   UNL     1      17.805  11.063  24.722  1.00  0.00     0.274 C 
ATOM     23  O   UNL     1      16.776  11.166  25.377  1.00  0.00    -0.267 OA
ATOM     24  H   UNL     1      18.779  10.490  23.051  1.00  0.00     0.170 HD
BRANCH  22  25
ATOM     25  C   UNL     1      19.062  11.658  25.237  1.00  0.00     0.128 A 
ATOM     26  N   UNL     1      19.439  11.280  26.463  1.00  0.00    -0.248 NA
ATOM     27  C   UNL     1      19.780  12.544  24.451  1.00  0.00     0.037 A 
ATOM     28  C   UNL     1      20.573  11.809  26.951  1.00  0.00     0.151 A 
ATOM     29  C   UNL     1      20.946  13.067  24.980  1.00  0.00     0.043 A 
ATOM     30  C   UNL     1      21.351  12.701  26.249  1.00  0.00     0.141 A 
ATOM     31  F   UNL     1      22.481  13.176  26.801  1.00  0.00    -0.205 F 
ENDBRANCH  22  25
ENDBRANCH   3  21
TORSDOF 3
ENDMDL
MODEL 8
REMARK VINA RESULT:    -7.703      4.895      7.681
REMARK INTER + INTRA:          -9.445
REMARK INTER:                  -9.516
REMARK INTRA:                   0.070
REMARK UNBOUND:                -0.392
REMARK SMILES CN1C(N)=N[C@](C)(c2cc(NC(=O)c3ccc(F)cn3)ccc2F)CS1(=O)=O
REMARK SMILES IDX 8 1 9 2 10 3 21 4 22 5 23 6 24 7 6 8 25 9 5 10 26 11 3 12
REMARK SMILES IDX 27 13 2 14 28 15 4 16 7 17 1 18 11 21 12 22 13 23 14 25
REMARK SMILES IDX 20 26 15 27 19 28 16 29 17 30 18 31
REMARK H PARENT 4 19 4 20 11 24
ROOT
ATOM      1  C   UNL     1      24.930  11.237  19.875  1.00  0.00     0.018 A 
ATOM      2  C   UNL     1      24.118  10.538  20.767  1.00  0.00     0.035 A 
ATOM      3  C   UNL     1      24.270   9.189  20.998  1.00  0.00     0.042 A 
ATOM      4  C   UNL     1      25.241   8.464  20.320  1.00  0.00     0.029 A 
ATOM      5  C   UNL     1      26.058   9.142  19.433  1.00  0.00     0.042 A 
ATOM      6  C   UNL     1      25.916  10.502  19.235  1.00  0.00     0.129 A 
ATOM      7  F   UNL     1      26.750  11.149  18.381  1.00  0.00    -0.207 F 
ENDROOT
BRANCH   1   8
ATOM      8  C   UNL     1      24.740  12.728  19.643  1.00  0.00     0.105 C 
ATOM      9  C   UNL     1      26.003  13.555  19.725  1.00  0.00     0.195 C 
ATOM     10  N   UNL     1      23.713  13.292  20.517  1.00  0.00    -0.240 NA
ATOM     11  S   UNL     1      26.692  13.490  21.359  1.00  0.00     0.239 S 
ATOM     12  C   UNL     1      23.970  13.625  21.745  1.00  0.00     0.205 C 
ATOM     13  O   UNL     1      27.424  14.729  21.551  1.00  0.00    -0.206 OA
ATOM     14  N   UNL     1      25.263  13.589  22.314  1.00  0.00    -0.243 N 
ATOM     15  O   UNL     1      27.214  12.193  21.660  1.00  0.00    -0.206 OA
ATOM     16  N   UNL     1      22.999  14.071  22.600  1.00  0.00    -0.369 N 
ATOM     17  C   UNL     1      24.154  12.940  18.244  1.00  0.00     0.044 C 
ATOM     18  C   UNL     1      25.519  13.850  23.744  1.00  0.00     0.167 C 
ATOM     19  H   UNL     1      22.065  14.132  22.295  1.00  0.00     0.159 HD
ATOM     20  H   UNL     1      23.234  14.332  23.520  1.00  0.00     0.159 HD
ENDBRANCH   1   8
BRANCH   3  21
ATOM     21  N   UNL     1      23.387   8.607  21.917  1.00  0.00    -0.321 N 
ATOM     22  C   UNL     1      22.613   9.234  22.878  1.00  0.00     0.274 C 
ATOM     23  O   UNL     1      22.677  10.421  23.169  1.00  0.00    -0.267 OA
ATOM     24  H   UNL     1      23.306   7.627  21.873  1.00  0.00     0.170 HD
BRANCH  22  25
ATOM     25  C   UNL     1      21.620   8.366  23.556  1.00  0.00     0.128 A 
ATOM     26  N   UNL     1      21.362   8.650  24.837  1.00  0.00    -0.248 NA
ATOM     27  C   UNL     1      21.012   7.337  22.860  1.00  0.00     0.037 A 
ATOM     28  C   UNL     1      20.469   7.875  25.474  1.00  0.00     0.151 A 
ATOM     29  C   UNL     1      20.092   6.560  23.541  1.00  0.00     0.043 A 
ATOM     30  C   UNL     1      19.816   6.825  24.869  1.00  0.00     0.141 A 
ATOM     31  F   UNL     1      18.924   6.104  25.569  1.00  0.00    -0.205 F 
ENDBRANCH  22  25
ENDBRANCH   3  21
TORSDOF 3
ENDMDL
MODEL 9
REMARK VINA RESULT:    -7.692      4.220      5.427
REMARK INTER + INTRA:          -9.433
REMARK INTER:                  -9.827
REMARK INTRA:                   0.394
REMARK UNBOUND:                -0.392
REMARK SMILES CN1C(N)=N[C@](C)(c2cc(NC(=O)c3ccc(F)cn3)ccc2F)CS1(=O)=O
REMARK SMILES IDX 8 1 9 2 10 3 21 4 22 5 23 6 24 7 6 8 25 9 5 10 26 11 3 12
REMARK SMILES IDX 27 13 2 14 28 15 4 16 7 17 1 18 11 21 12 22 13 23 14 25
REMARK SMILES IDX 20 26 15 27 19 28 16 29 17 30 18 31
REMARK H PARENT 4 19 4 20 11 24
ROOT
ATOM      1  C   UNL     1      19.441  11.115  25.084  1.00  0.00     0.018 A 
ATOM      2  C   UNL     1      19.902   9.800  25.129  1.00  0.00     0.035 A 
ATOM      3  C   UNL     1      19.119   8.732  24.753  1.00  0.00     0.042 A 
ATOM      4  C   UNL     1      17.812   8.933  24.329  1.00  0.00     0.029 A 
ATOM      5  C   UNL     1      17.338  10.232  24.274  1.00  0.00     0.042 A 
ATOM      6  C   UNL     1      18.146  11.297  24.624  1.00  0.00     0.129 A 
ATOM      7  F   UNL     1      17.667  12.564  24.534  1.00  0.00    -0.207 F 
ENDROOT
BRANCH   1   8
ATOM      8  C   UNL     1      20.332  12.274  25.504  1.00  0.00     0.105 C 
ATOM      9  C   UNL     1      21.487  11.900  26.405  1.00  0.00     0.195 C 
ATOM     10  N   UNL     1      19.565  13.368  26.098  1.00  0.00    -0.240 NA
ATOM     11  S   UNL     1      20.895  11.270  27.955  1.00  0.00     0.239 S 
ATOM     12  C   UNL     1      19.193  13.343  27.341  1.00  0.00     0.205 C 
ATOM     13  O   UNL     1      21.922  11.560  28.939  1.00  0.00    -0.206 OA
ATOM     14  N   UNL     1      19.582  12.341  28.257  1.00  0.00    -0.243 N 
ATOM     15  O   UNL     1      20.268   9.995  27.800  1.00  0.00    -0.206 OA
ATOM     16  N   UNL     1      18.401  14.317  27.886  1.00  0.00    -0.369 N 
ATOM     17  C   UNL     1      20.930  12.917  24.249  1.00  0.00     0.044 C 
ATOM     18  C   UNL     1      19.052  12.259  29.633  1.00  0.00     0.167 C 
ATOM     19  H   UNL     1      18.078  15.060  27.326  1.00  0.00     0.159 HD
ATOM     20  H   UNL     1      18.153  14.276  28.838  1.00  0.00     0.159 HD
ENDBRANCH   1   8
BRANCH   3  21
ATOM     21  N   UNL     1      19.702   7.462  24.848  1.00  0.00    -0.321 N 
ATOM     22  C   UNL     1      20.583   6.855  23.970  1.00  0.00     0.274 C 
ATOM     23  O   UNL     1      20.901   7.297  22.874  1.00  0.00    -0.267 OA
ATOM     24  H   UNL     1      19.454   6.934  25.641  1.00  0.00     0.170 HD
BRANCH  22  25
ATOM     25  C   UNL     1      21.188   5.590  24.454  1.00  0.00     0.128 A 
ATOM     26  N   UNL     1      22.377   5.266  23.935  1.00  0.00    -0.248 NA
ATOM     27  C   UNL     1      20.528   4.826  25.401  1.00  0.00     0.037 A 
ATOM     28  C   UNL     1      22.943   4.122  24.355  1.00  0.00     0.151 A 
ATOM     29  C   UNL     1      21.140   3.657  25.818  1.00  0.00     0.043 A 
ATOM     30  C   UNL     1      22.363   3.293  25.287  1.00  0.00     0.141 A 
ATOM     31  F   UNL     1      22.999   2.172  25.668  1.00  0.00    -0.205 F 
ENDBRANCH  22  25
ENDBRANCH   3  21
TORSDOF 3
ENDMDL
MODEL 10
REMARK VINA RESULT:    -7.654      5.381      8.148
REMARK INTER + INTRA:          -9.387
REMARK INTER:                  -8.981
REMARK INTRA:                  -0.406
REMARK UNBOUND:                -0.392
REMARK SMILES CN1C(N)=N[C@](C)(c2cc(NC(=O)c3ccc(F)cn3)ccc2F)CS1(=O)=O
REMARK SMILES IDX 8 1 9 2 10 3 21 4 22 5 23 6 24 7 6 8 25 9 5 10 26 11 3 12
REMARK SMILES IDX 27 13 2 14 28 15 4 16 7 17 1 18 11 21 12 22 13 23 14 25
REMARK SMILES IDX 20 26 15 27 19 28 16 29 17 30 18 31
REMARK H PARENT 4 19 4 20 11 24
ROOT
ATOM      1  C   UNL     1      17.977   7.128  22.796  1.00  0.00     0.018 A 
ATOM      2  C   UNL     1      19.134   6.438  22.435  1.00  0.00     0.035 A 
ATOM      3  C   UNL     1      20.003   5.919  23.367  1.00  0.00     0.042 A 
ATOM      4  C   UNL     1      19.762   6.089  24.724  1.00  0.00     0.029 A 
ATOM      5  C   UNL     1      18.617   6.768  25.102  1.00  0.00     0.042 A 
ATOM      6  C   UNL     1      17.738   7.256  24.156  1.00  0.00     0.129 A 
ATOM      7  F   UNL     1      16.606   7.893  24.553  1.00  0.00    -0.207 F 
ENDROOT
BRANCH   1   8
ATOM      8  C   UNL     1      17.035   7.687  21.742  1.00  0.00     0.105 C 
ATOM      9  C   UNL     1      15.601   7.218  21.851  1.00  0.00     0.195 C 
ATOM     10  N   UNL     1      17.534   7.465  20.386  1.00  0.00    -0.240 NA
ATOM     11  S   UNL     1      15.493   5.465  21.594  1.00  0.00     0.239 S 
ATOM     12  C   UNL     1      17.370   6.331  19.777  1.00  0.00     0.205 C 
ATOM     13  O   UNL     1      14.167   5.205  21.063  1.00  0.00    -0.206 OA
ATOM     14  N   UNL     1      16.609   5.261  20.299  1.00  0.00    -0.243 N 
ATOM     15  O   UNL     1      16.084   4.736  22.673  1.00  0.00    -0.206 OA
ATOM     16  N   UNL     1      17.908   6.079  18.543  1.00  0.00    -0.369 N 
ATOM     17  C   UNL     1      17.017   9.214  21.854  1.00  0.00     0.044 C 
ATOM     18  C   UNL     1      16.535   3.936  19.653  1.00  0.00     0.167 C 
ATOM     19  H   UNL     1      18.455   6.765  18.096  1.00  0.00     0.159 HD
ATOM     20  H   UNL     1      17.748   5.213  18.103  1.00  0.00     0.159 HD
ENDBRANCH   1   8
BRANCH   3  21
ATOM     21  N   UNL     1      21.130   5.251  22.871  1.00  0.00    -0.321 N 
ATOM     22  C   UNL     1      22.369   5.778  22.553  1.00  0.00     0.274 C 
ATOM     23  O   UNL     1      22.643   6.971  22.535  1.00  0.00    -0.267 OA
ATOM     24  H   UNL     1      21.027   4.281  22.731  1.00  0.00     0.170 HD
BRANCH  22  25
ATOM     25  C   UNL     1      23.423   4.780  22.251  1.00  0.00     0.128 A 
ATOM     26  N   UNL     1      24.262   5.086  21.256  1.00  0.00    -0.248 NA
ATOM     27  C   UNL     1      23.503   3.613  22.991  1.00  0.00     0.037 A 
ATOM     28  C   UNL     1      25.223   4.196  20.961  1.00  0.00     0.151 A 
ATOM     29  C   UNL     1      24.508   2.718  22.668  1.00  0.00     0.043 A 
ATOM     30  C   UNL     1      25.380   3.006  21.636  1.00  0.00     0.141 A 
ATOM     31  F   UNL     1      26.376   2.172  21.292  1.00  0.00    -0.205 F 
ENDBRANCH  22  25
ENDBRANCH   3  21
TORSDOF 3
ENDMDL
MODEL 11
REMARK VINA RESULT:    -7.604      8.220     10.147
REMARK INTER + INTRA:          -9.329
REMARK INTER:                  -8.909
REMARK INTRA:                  -0.420
REMARK UNBOUND:                -0.392
REMARK SMILES CN1C(N)=N[C@](C)(c2cc(NC(=O)c3ccc(F)cn3)ccc2F)CS1(=O)=O
REMARK SMILES IDX 8 1 9 2 10 3 21 4 22 5 23 6 24 7 6 8 25 9 5 10 26 11 3 12
REMARK SMILES IDX 27 13 2 14 28 15 4 16 7 17 1 18 11 21 12 22 13 23 14 25
REMARK SMILES IDX 20 26 15 27 19 28 16 29 17 30 18 31
REMARK H PARENT 4 19 4 20 11 24
ROOT
ATOM      1  C   UNL     1      25.330  10.944  19.652  1.00  0.00     0.018 A 
ATOM      2  C   UNL     1      25.967   9.864  20.261  1.00  0.00     0.035 A 
ATOM      3  C   UNL     1      26.123   8.650  19.631  1.00  0.00     0.042 A 
ATOM      4  C   UNL     1      25.620   8.453  18.351  1.00  0.00     0.029 A 
ATOM      5  C   UNL     1      24.988   9.515  17.730  1.00  0.00     0.042 A 
ATOM      6  C   UNL     1      24.867  10.737  18.362  1.00  0.00     0.129 A 
ATOM      7  F   UNL     1      24.268  11.772  17.718  1.00  0.00    -0.207 F 
ENDROOT
BRANCH   1   8
ATOM      8  C   UNL     1      25.177  12.274  20.373  1.00  0.00     0.105 C 
ATOM      9  C   UNL     1      25.643  13.483  19.594  1.00  0.00     0.195 C 
ATOM     10  N   UNL     1      25.802  12.257  21.695  1.00  0.00    -0.240 NA
ATOM     11  S   UNL     1      27.389  13.395  19.286  1.00  0.00     0.239 S 
ATOM     12  C   UNL     1      27.076  12.443  21.848  1.00  0.00     0.205 C 
ATOM     13  O   UNL     1      27.858  14.764  19.169  1.00  0.00    -0.206 OA
ATOM     14  N   UNL     1      27.952  12.791  20.796  1.00  0.00    -0.243 N 
ATOM     15  O   UNL     1      27.709  12.354  18.360  1.00  0.00    -0.206 OA
ATOM     16  N   UNL     1      27.688  12.342  23.069  1.00  0.00    -0.369 N 
ATOM     17  C   UNL     1      23.696  12.493  20.697  1.00  0.00     0.044 C 
ATOM     18  C   UNL     1      29.416  12.877  20.962  1.00  0.00     0.167 C 
ATOM     19  H   UNL     1      27.160  12.103  23.865  1.00  0.00     0.159 HD
ATOM     20  H   UNL     1      28.655  12.507  23.151  1.00  0.00     0.159 HD
ENDBRANCH   1   8
BRANCH   3  21
ATOM     21  N   UNL     1      26.780   7.647  20.355  1.00  0.00    -0.321 N 
ATOM     22  C   UNL     1      26.229   6.545  20.985  1.00  0.00     0.274 C 
ATOM     23  O   UNL     1      25.031   6.336  21.119  1.00  0.00    -0.267 OA
ATOM     24  H   UNL     1      27.758   7.738  20.424  1.00  0.00     0.170 HD
BRANCH  22  25
ATOM     25  C   UNL     1      27.207   5.550  21.489  1.00  0.00     0.128 A 
ATOM     26  N   UNL     1      26.700   4.499  22.141  1.00  0.00    -0.248 NA
ATOM     27  C   UNL     1      28.560   5.735  21.264  1.00  0.00     0.037 A 
ATOM     28  C   UNL     1      27.567   3.586  22.611  1.00  0.00     0.151 A 
ATOM     29  C   UNL     1      29.427   4.775  21.755  1.00  0.00     0.043 A 
ATOM     30  C   UNL     1      28.929   3.686  22.444  1.00  0.00     0.141 A 
ATOM     31  F   UNL     1      29.732   2.724  22.930  1.00  0.00    -0.205 F 
ENDBRANCH  22  25
ENDBRANCH   3  21
TORSDOF 3
ENDMDL
MODEL 12
REMARK VINA RESULT:    -7.594      2.661      3.779
REMARK INTER + INTRA:          -9.317
REMARK INTER:                  -9.328
REMARK INTRA:                   0.011
REMARK UNBOUND:                -0.392
REMARK SMILES CN1C(N)=N[C@](C)(c2cc(NC(=O)c3ccc(F)cn3)ccc2F)CS1(=O)=O
REMARK SMILES IDX 8 1 9 2 10 3 21 4 22 5 23 6 24 7 6 8 25 9 5 10 26 11 3 12
REMARK SMILES IDX 27 13 2 14 28 15 4 16 7 17 1 18 11 21 12 22 13 23 14 25
REMARK SMILES IDX 20 26 15 27 19 28 16 29 17 30 18 31
REMARK H PARENT 4 19 4 20 11 24
ROOT
ATOM      1  C   UNL     1      19.681  11.115  25.211  1.00  0.00     0.018 A 
ATOM      2  C   UNL     1      18.877  10.551  24.223  1.00  0.00     0.035 A 
ATOM      3  C   UNL     1      18.693   9.191  24.111  1.00  0.00     0.042 A 
ATOM      4  C   UNL     1      19.334   8.321  24.984  1.00  0.00     0.029 A 
ATOM      5  C   UNL     1      20.133   8.864  25.974  1.00  0.00     0.042 A 
ATOM      6  C   UNL     1      20.283  10.231  26.094  1.00  0.00     0.129 A 
ATOM      7  F   UNL     1      21.050  10.740  27.092  1.00  0.00    -0.207 F 
ENDROOT
BRANCH   1   8
ATOM      8  C   UNL     1      19.862  12.622  25.311  1.00  0.00     0.105 C 
ATOM      9  C   UNL     1      19.929  13.168  26.719  1.00  0.00     0.195 C 
ATOM     10  N   UNL     1      18.855  13.348  24.538  1.00  0.00    -0.240 NA
ATOM     11  S   UNL     1      18.397  12.893  27.572  1.00  0.00     0.239 S 
ATOM     12  C   UNL     1      17.665  13.568  25.007  1.00  0.00     0.205 C 
ATOM     13  O   UNL     1      18.280  13.946  28.565  1.00  0.00    -0.206 OA
ATOM     14  N   UNL     1      17.266  13.243  26.322  1.00  0.00    -0.243 N 
ATOM     15  O   UNL     1      18.187  11.505  27.844  1.00  0.00    -0.206 OA
ATOM     16  N   UNL     1      16.686  14.167  24.261  1.00  0.00    -0.369 N 
ATOM     17  C   UNL     1      21.171  13.010  24.617  1.00  0.00     0.044 C 
ATOM     18  C   UNL     1      15.877  13.385  26.800  1.00  0.00     0.167 C 
ATOM     19  H   UNL     1      16.868  14.431  23.330  1.00  0.00     0.159 HD
ATOM     20  H   UNL     1      15.799  14.335  24.656  1.00  0.00     0.159 HD
ENDBRANCH   1   8
BRANCH   3  21
ATOM     21  N   UNL     1      17.862   8.753  23.072  1.00  0.00    -0.321 N 
ATOM     22  C   UNL     1      18.157   7.863  22.055  1.00  0.00     0.274 C 
ATOM     23  O   UNL     1      19.267   7.401  21.824  1.00  0.00    -0.267 OA
ATOM     24  H   UNL     1      16.951   9.127  23.065  1.00  0.00     0.170 HD
BRANCH  22  25
ATOM     25  C   UNL     1      17.001   7.438  21.229  1.00  0.00     0.128 A 
ATOM     26  N   UNL     1      17.274   7.062  19.976  1.00  0.00    -0.248 NA
ATOM     27  C   UNL     1      15.727   7.438  21.771  1.00  0.00     0.037 A 
ATOM     28  C   UNL     1      16.242   6.677  19.207  1.00  0.00     0.151 A 
ATOM     29  C   UNL     1      14.686   7.030  20.957  1.00  0.00     0.043 A 
ATOM     30  C   UNL     1      14.940   6.648  19.654  1.00  0.00     0.141 A 
ATOM     31  F   UNL     1      13.963   6.236  18.829  1.00  0.00    -0.205 F 
ENDBRANCH  22  25
ENDBRANCH   3  21
TORSDOF 3
ENDMDL
MODEL 13
REMARK VINA RESULT:    -7.561      3.495      7.513
REMARK INTER + INTRA:          -9.279
REMARK INTER:                  -8.916
REMARK INTRA:                  -0.363
REMARK UNBOUND:                -0.392
REMARK SMILES CN1C(N)=N[C@](C)(c2cc(NC(=O)c3ccc(F)cn3)ccc2F)CS1(=O)=O
REMARK SMILES IDX 8 1 9 2 10 3 21 4 22 5 23 6 24 7 6 8 25 9 5 10 26 11 3 12
REMARK SMILES IDX 27 13 2 14 28 15 4 16 7 17 1 18 11 21 12 22 13 23 14 25
REMARK SMILES IDX 20 26 15 27 19 28 16 29 17 30 18 31
REMARK H PARENT 4 19 4 20 11 24
ROOT
ATOM      1  C   UNL     1      18.178   7.801  23.006  1.00  0.00     0.018 A 
ATOM      2  C   UNL     1      19.089   8.767  23.431  1.00  0.00     0.035 A 
ATOM      3  C   UNL     1      18.712   9.851  24.192  1.00  0.00     0.042 A 
ATOM      4  C   UNL     1      17.381  10.030  24.549  1.00  0.00     0.029 A 
ATOM      5  C   UNL     1      16.464   9.079  24.139  1.00  0.00     0.042 A 
ATOM      6  C   UNL     1      16.862   7.980  23.403  1.00  0.00     0.129 A 
ATOM      7  F   UNL     1      15.947   7.046  23.038  1.00  0.00    -0.207 F 
ENDROOT
BRANCH   1   8
ATOM      8  C   UNL     1      18.627   6.613  22.169  1.00  0.00     0.105 C 
ATOM      9  C   UNL     1      18.407   5.260  22.807  1.00  0.00     0.195 C 
ATOM     10  N   UNL     1      20.016   6.743  21.732  1.00  0.00    -0.240 NA
ATOM     11  S   UNL     1      19.379   5.098  24.283  1.00  0.00     0.239 S 
ATOM     12  C   UNL     1      21.007   6.432  22.510  1.00  0.00     0.205 C 
ATOM     13  O   UNL     1      19.647   3.680  24.449  1.00  0.00    -0.206 OA
ATOM     14  N   UNL     1      20.850   5.839  23.782  1.00  0.00    -0.243 N 
ATOM     15  O   UNL     1      18.903   5.953  25.325  1.00  0.00    -0.206 OA
ATOM     16  N   UNL     1      22.311   6.632  22.147  1.00  0.00    -0.369 N 
ATOM     17  C   UNL     1      17.851   6.618  20.849  1.00  0.00     0.044 C 
ATOM     18  C   UNL     1      21.979   5.606  24.706  1.00  0.00     0.167 C 
ATOM     19  H   UNL     1      22.523   7.040  21.276  1.00  0.00     0.159 HD
ATOM     20  H   UNL     1      23.038   6.367  22.755  1.00  0.00     0.159 HD
ENDBRANCH   1   8
BRANCH   3  21
ATOM     21  N   UNL     1      19.725  10.749  24.550  1.00  0.00    -0.321 N 
ATOM     22  C   UNL     1      20.510  10.747  25.689  1.00  0.00     0.274 C 
ATOM     23  O   UNL     1      20.350  10.009  26.653  1.00  0.00    -0.267 OA
ATOM     24  H   UNL     1      19.902  11.475  23.908  1.00  0.00     0.170 HD
BRANCH  22  25
ATOM     25  C   UNL     1      21.641  11.706  25.682  1.00  0.00     0.128 A 
ATOM     26  N   UNL     1      21.833  12.405  26.805  1.00  0.00    -0.248 NA
ATOM     27  C   UNL     1      22.434  11.830  24.554  1.00  0.00     0.037 A 
ATOM     28  C   UNL     1      22.849  13.283  26.821  1.00  0.00     0.151 A 
ATOM     29  C   UNL     1      23.477  12.739  24.603  1.00  0.00     0.043 A 
ATOM     30  C   UNL     1      23.688  13.482  25.748  1.00  0.00     0.141 A 
ATOM     31  F   UNL     1      24.693  14.369  25.845  1.00  0.00    -0.205 F 
ENDBRANCH  22  25
ENDBRANCH   3  21
TORSDOF 3
ENDMDL
MODEL 14
REMARK VINA RESULT:    -7.534      5.522      8.637
REMARK INTER + INTRA:          -9.246
REMARK INTER:                  -9.010
REMARK INTRA:                  -0.236
REMARK UNBOUND:                -0.392
REMARK SMILES CN1C(N)=N[C@](C)(c2cc(NC(=O)c3ccc(F)cn3)ccc2F)CS1(=O)=O
REMARK SMILES IDX 8 1 9 2 10 3 21 4 22 5 23 6 24 7 6 8 25 9 5 10 26 11 3 12
REMARK SMILES IDX 27 13 2 14 28 15 4 16 7 17 1 18 11 21 12 22 13 23 14 25
REMARK SMILES IDX 20 26 15 27 19 28 16 29 17 30 18 31
REMARK H PARENT 4 19 4 20 11 24
ROOT
ATOM      1  C   UNL     1      25.257  12.579  20.698  1.00  0.00     0.018 A 
ATOM      2  C   UNL     1      24.355  12.520  21.759  1.00  0.00     0.035 A 
ATOM      3  C   UNL     1      23.609  11.395  22.030  1.00  0.00     0.042 A 
ATOM      4  C   UNL     1      23.717  10.269  21.225  1.00  0.00     0.029 A 
ATOM      5  C   UNL     1      24.611  10.308  20.169  1.00  0.00     0.042 A 
ATOM      6  C   UNL     1      25.376  11.432  19.929  1.00  0.00     0.129 A 
ATOM      7  F   UNL     1      26.267  11.434  18.904  1.00  0.00    -0.207 F 
ENDROOT
BRANCH   1   8
ATOM      8  C   UNL     1      26.069  13.835  20.427  1.00  0.00     0.105 C 
ATOM      9  C   UNL     1      27.568  13.635  20.395  1.00  0.00     0.195 C 
ATOM     10  N   UNL     1      25.728  14.919  21.347  1.00  0.00    -0.240 NA
ATOM     11  S   UNL     1      28.165  13.108  21.981  1.00  0.00     0.239 S 
ATOM     12  C   UNL     1      26.229  14.982  22.542  1.00  0.00     0.205 C 
ATOM     13  O   UNL     1      29.539  13.565  22.080  1.00  0.00    -0.206 OA
ATOM     14  N   UNL     1      27.222  14.102  23.025  1.00  0.00    -0.243 N 
ATOM     15  O   UNL     1      27.735  11.781  22.292  1.00  0.00    -0.206 OA
ATOM     16  N   UNL     1      25.850  15.941  23.443  1.00  0.00    -0.369 N 
ATOM     17  C   UNL     1      25.663  14.402  19.064  1.00  0.00     0.044 C 
ATOM     18  C   UNL     1      27.691  14.108  24.425  1.00  0.00     0.167 C 
ATOM     19  H   UNL     1      25.163  16.602  23.199  1.00  0.00     0.159 HD
ATOM     20  H   UNL     1      26.265  15.969  24.336  1.00  0.00     0.159 HD
ENDBRANCH   1   8
BRANCH   3  21
ATOM     21  N   UNL     1      22.737  11.469  23.124  1.00  0.00    -0.321 N 
ATOM     22  C   UNL     1      23.013  11.888  24.413  1.00  0.00     0.274 C 
ATOM     23  O   UNL     1      24.128  12.148  24.846  1.00  0.00    -0.267 OA
ATOM     24  H   UNL     1      21.809  11.187  22.953  1.00  0.00     0.170 HD
BRANCH  22  25
ATOM     25  C   UNL     1      21.830  12.053  25.293  1.00  0.00     0.128 A 
ATOM     26  N   UNL     1      21.912  11.499  26.507  1.00  0.00    -0.248 NA
ATOM     27  C   UNL     1      20.727  12.758  24.842  1.00  0.00     0.037 A 
ATOM     28  C   UNL     1      20.851  11.632  27.320  1.00  0.00     0.151 A 
ATOM     29  C   UNL     1      19.653  12.882  25.705  1.00  0.00     0.043 A 
ATOM     30  C   UNL     1      19.708  12.310  26.961  1.00  0.00     0.141 A 
ATOM     31  F   UNL     1      18.693  12.412  27.836  1.00  0.00    -0.205 F 
ENDBRANCH  22  25
ENDBRANCH   3  21
TORSDOF 3
ENDMDL
MODEL 15
REMARK VINA RESULT:    -7.492      4.705      7.886
REMARK INTER + INTRA:          -9.197
REMARK INTER:                  -9.272
REMARK INTRA:                   0.075
REMARK UNBOUND:                -0.392
REMARK SMILES CN1C(N)=N[C@](C)(c2cc(NC(=O)c3ccc(F)cn3)ccc2F)CS1(=O)=O
REMARK SMILES IDX 8 1 9 2 10 3 21 4 22 5 23 6 24 7 6 8 25 9 5 10 26 11 3 12
REMARK SMILES IDX 27 13 2 14 28 15 4 16 7 17 1 18 11 21 12 22 13 23 14 25
REMARK SMILES IDX 20 26 15 27 19 28 16 29 17 30 18 31
REMARK H PARENT 4 19 4 20 11 24
ROOT
ATOM      1  C   UNL     1      20.842   6.657  23.885  1.00  0.00     0.018 A 
ATOM      2  C   UNL     1      21.428   7.742  23.234  1.00  0.00     0.035 A 
ATOM      3  C   UNL     1      22.525   7.604  22.414  1.00  0.00     0.042 A 
ATOM      4  C   UNL     1      23.108   6.358  22.222  1.00  0.00     0.029 A 
ATOM      5  C   UNL     1      22.538   5.269  22.858  1.00  0.00     0.042 A 
ATOM      6  C   UNL     1      21.418   5.417  23.652  1.00  0.00     0.129 A 
ATOM      7  F   UNL     1      20.860   4.328  24.241  1.00  0.00    -0.207 F 
ENDROOT
BRANCH   1   8
ATOM      8  C   UNL     1      19.629   6.841  24.782  1.00  0.00     0.105 C 
ATOM      9  C   UNL     1      18.487   5.884  24.521  1.00  0.00     0.195 C 
ATOM     10  N   UNL     1      19.140   8.219  24.769  1.00  0.00    -0.240 NA
ATOM     11  S   UNL     1      17.822   6.130  22.894  1.00  0.00     0.239 S 
ATOM     12  C   UNL     1      18.373   8.661  23.821  1.00  0.00     0.205 C 
ATOM     13  O   UNL     1      16.430   5.721  22.950  1.00  0.00    -0.206 OA
ATOM     14  N   UNL     1      17.845   7.848  22.794  1.00  0.00    -0.243 N 
ATOM     15  O   UNL     1      18.741   5.716  21.880  1.00  0.00    -0.206 OA
ATOM     16  N   UNL     1      17.981   9.971  23.749  1.00  0.00    -0.369 N 
ATOM     17  C   UNL     1      20.056   6.643  26.239  1.00  0.00     0.044 C 
ATOM     18  C   UNL     1      17.076   8.388  21.655  1.00  0.00     0.167 C 
ATOM     19  H   UNL     1      18.298  10.617  24.422  1.00  0.00     0.159 HD
ATOM     20  H   UNL     1      17.383  10.268  23.026  1.00  0.00     0.159 HD
ENDBRANCH   1   8
BRANCH   3  21
ATOM     21  N   UNL     1      23.017   8.775  21.822  1.00  0.00    -0.321 N 
ATOM     22  C   UNL     1      24.204   8.953  21.134  1.00  0.00     0.274 C 
ATOM     23  O   UNL     1      25.097   8.121  21.042  1.00  0.00    -0.267 OA
ATOM     24  H   UNL     1      22.445   9.572  21.907  1.00  0.00     0.170 HD
BRANCH  22  25
ATOM     25  C   UNL     1      24.345  10.258  20.443  1.00  0.00     0.128 A 
ATOM     26  N   UNL     1      25.449  10.960  20.721  1.00  0.00    -0.248 NA
ATOM     27  C   UNL     1      23.368  10.681  19.559  1.00  0.00     0.037 A 
ATOM     28  C   UNL     1      25.597  12.147  20.110  1.00  0.00     0.151 A 
ATOM     29  C   UNL     1      23.552  11.906  18.941  1.00  0.00     0.043 A 
ATOM     30  C   UNL     1      24.678  12.655  19.221  1.00  0.00     0.141 A 
ATOM     31  F   UNL     1      24.904  13.845  18.638  1.00  0.00    -0.205 F 
ENDBRANCH  22  25
ENDBRANCH   3  21
TORSDOF 3
ENDMDL
MODEL 16
REMARK VINA RESULT:    -7.486      3.324      4.250
REMARK INTER + INTRA:          -9.190
REMARK INTER:                  -9.139
REMARK INTRA:                  -0.051
REMARK UNBOUND:                -0.392
REMARK SMILES CN1C(N)=N[C@](C)(c2cc(NC(=O)c3ccc(F)cn3)ccc2F)CS1(=O)=O
REMARK SMILES IDX 8 1 9 2 10 3 21 4 22 5 23 6 24 7 6 8 25 9 5 10 26 11 3 12
REMARK SMILES IDX 27 13 2 14 28 15 4 16 7 17 1 18 11 21 12 22 13 23 14 25
REMARK SMILES IDX 20 26 15 27 19 28 16 29 17 30 18 31
REMARK H PARENT 4 19 4 20 11 24
ROOT
ATOM      1  C   UNL     1      18.695   7.105  23.821  1.00  0.00     0.018 A 
ATOM      2  C   UNL     1      18.504   6.498  22.581  1.00  0.00     0.035 A 
ATOM      3  C   UNL     1      17.456   6.828  21.752  1.00  0.00     0.042 A 
ATOM      4  C   UNL     1      16.524   7.782  22.143  1.00  0.00     0.029 A 
ATOM      5  C   UNL     1      16.700   8.398  23.369  1.00  0.00     0.042 A 
ATOM      6  C   UNL     1      17.774   8.079  24.176  1.00  0.00     0.129 A 
ATOM      7  F   UNL     1      17.939   8.719  25.362  1.00  0.00    -0.207 F 
ENDROOT
BRANCH   1   8
ATOM      8  C   UNL     1      19.865   6.720  24.713  1.00  0.00     0.105 C 
ATOM      9  C   UNL     1      20.499   7.867  25.468  1.00  0.00     0.195 C 
ATOM     10  N   UNL     1      20.888   5.973  23.983  1.00  0.00    -0.240 NA
ATOM     11  S   UNL     1      21.221   9.035  24.344  1.00  0.00     0.239 S 
ATOM     12  C   UNL     1      21.779   6.571  23.254  1.00  0.00     0.205 C 
ATOM     13  O   UNL     1      22.311   9.677  25.057  1.00  0.00    -0.206 OA
ATOM     14  N   UNL     1      21.925   7.974  23.186  1.00  0.00    -0.243 N 
ATOM     15  O   UNL     1      20.223   9.739  23.601  1.00  0.00    -0.206 OA
ATOM     16  N   UNL     1      22.687   5.880  22.497  1.00  0.00    -0.369 N 
ATOM     17  C   UNL     1      19.380   5.709  25.755  1.00  0.00     0.044 C 
ATOM     18  C   UNL     1      22.860   8.641  22.258  1.00  0.00     0.167 C 
ATOM     19  H   UNL     1      22.666   4.896  22.480  1.00  0.00     0.159 HD
ATOM     20  H   UNL     1      23.361   6.367  21.970  1.00  0.00     0.159 HD
ENDBRANCH   1   8
BRANCH   3  21
ATOM     21  N   UNL     1      17.378   6.141  20.534  1.00  0.00    -0.321 N 
ATOM     22  C   UNL     1      16.738   4.944  20.264  1.00  0.00     0.274 C 
ATOM     23  O   UNL     1      16.230   4.213  21.104  1.00  0.00    -0.267 OA
ATOM     24  H   UNL     1      17.838   6.563  19.772  1.00  0.00     0.170 HD
BRANCH  22  25
ATOM     25  C   UNL     1      16.655   4.579  18.829  1.00  0.00     0.128 A 
ATOM     26  N   UNL     1      17.738   4.001  18.301  1.00  0.00    -0.248 NA
ATOM     27  C   UNL     1      15.495   4.834  18.118  1.00  0.00     0.037 A 
ATOM     28  C   UNL     1      17.688   3.665  17.002  1.00  0.00     0.151 A 
ATOM     29  C   UNL     1      15.472   4.471  16.782  1.00  0.00     0.043 A 
ATOM     30  C   UNL     1      16.583   3.882  16.210  1.00  0.00     0.141 A 
ATOM     31  F   UNL     1      16.604   3.505  14.920  1.00  0.00    -0.205 F 
ENDBRANCH  22  25
ENDBRANCH   3  21
TORSDOF 3
ENDMDL
MODEL 17
REMARK VINA RESULT:    -7.479      8.143      9.860
REMARK INTER + INTRA:          -9.183
REMARK INTER:                  -9.473
REMARK INTRA:                   0.290
REMARK UNBOUND:                -0.392
REMARK SMILES CN1C(N)=N[C@](C)(c2cc(NC(=O)c3ccc(F)cn3)ccc2F)CS1(=O)=O
REMARK SMILES IDX 8 1 9 2 10 3 21 4 22 5 23 6 24 7 6 8 25 9 5 10 26 11 3 12
REMARK SMILES IDX 27 13 2 14 28 15 4 16 7 17 1 18 11 21 12 22 13 23 14 25
REMARK SMILES IDX 20 26 15 27 19 28 16 29 17 30 18 31
REMARK H PARENT 4 19 4 20 11 24
ROOT
ATOM      1  C   UNL     1      25.443  12.345  19.335  1.00  0.00     0.018 A 
ATOM      2  C   UNL     1      26.074  11.163  18.950  1.00  0.00     0.035 A 
ATOM      3  C   UNL     1      25.390   9.978  18.801  1.00  0.00     0.042 A 
ATOM      4  C   UNL     1      24.026   9.916  19.055  1.00  0.00     0.029 A 
ATOM      5  C   UNL     1      23.382  11.081  19.434  1.00  0.00     0.042 A 
ATOM      6  C   UNL     1      24.075  12.269  19.549  1.00  0.00     0.129 A 
ATOM      7  F   UNL     1      23.415  13.404  19.895  1.00  0.00    -0.207 F 
ENDROOT
BRANCH   1   8
ATOM      8  C   UNL     1      26.226  13.639  19.488  1.00  0.00     0.105 C 
ATOM      9  C   UNL     1      27.696  13.466  19.799  1.00  0.00     0.195 C 
ATOM     10  N   UNL     1      25.611  14.541  20.461  1.00  0.00    -0.240 NA
ATOM     11  S   UNL     1      27.916  12.677  21.374  1.00  0.00     0.239 S 
ATOM     12  C   UNL     1      25.801  14.400  21.737  1.00  0.00     0.205 C 
ATOM     13  O   UNL     1      29.197  13.126  21.887  1.00  0.00    -0.206 OA
ATOM     14  N   UNL     1      26.693  13.460  22.299  1.00  0.00    -0.243 N 
ATOM     15  O   UNL     1      27.497  11.310  21.342  1.00  0.00    -0.206 OA
ATOM     16  N   UNL     1      25.161  15.181  22.661  1.00  0.00    -0.369 N 
ATOM     17  C   UNL     1      26.134  14.431  18.181  1.00  0.00     0.044 C 
ATOM     18  C   UNL     1      26.806  13.227  23.752  1.00  0.00     0.167 C 
ATOM     19  H   UNL     1      24.519  15.866  22.367  1.00  0.00     0.159 HD
ATOM     20  H   UNL     1      25.344  15.058  23.621  1.00  0.00     0.159 HD
ENDBRANCH   1   8
BRANCH   3  21
ATOM     21  N   UNL     1      26.144   8.863  18.412  1.00  0.00    -0.321 N 
ATOM     22  C   UNL     1      26.644   7.847  19.207  1.00  0.00     0.274 C 
ATOM     23  O   UNL     1      26.613   7.830  20.431  1.00  0.00    -0.267 OA
ATOM     24  H   UNL     1      26.343   8.793  17.450  1.00  0.00     0.170 HD
BRANCH  22  25
ATOM     25  C   UNL     1      27.222   6.695  18.474  1.00  0.00     0.128 A 
ATOM     26  N   UNL     1      28.271   6.094  19.045  1.00  0.00    -0.248 NA
ATOM     27  C   UNL     1      26.666   6.292  17.272  1.00  0.00     0.037 A 
ATOM     28  C   UNL     1      28.814   5.050  18.397  1.00  0.00     0.151 A 
ATOM     29  C   UNL     1      27.244   5.210  16.631  1.00  0.00     0.043 A 
ATOM     30  C   UNL     1      28.337   4.579  17.195  1.00  0.00     0.141 A 
ATOM     31  F   UNL     1      28.925   3.520  16.614  1.00  0.00    -0.205 F 
ENDBRANCH  22  25
ENDBRANCH   3  21
TORSDOF 3
ENDMDL
MODEL 18
REMARK VINA RESULT:    -7.440      4.938      6.814
REMARK INTER + INTRA:          -9.136
REMARK INTER:                  -9.582
REMARK INTRA:                   0.446
REMARK UNBOUND:                -0.392
REMARK SMILES CN1C(N)=N[C@](C)(c2cc(NC(=O)c3ccc(F)cn3)ccc2F)CS1(=O)=O
REMARK SMILES IDX 8 1 9 2 10 3 21 4 22 5 23 6 24 7 6 8 25 9 5 10 26 11 3 12
REMARK SMILES IDX 27 13 2 14 28 15 4 16 7 17 1 18 11 21 12 22 13 23 14 25
REMARK SMILES IDX 20 26 15 27 19 28 16 29 17 30 18 31
REMARK H PARENT 4 19 4 20 11 24
ROOT
ATOM      1  C   UNL     1      21.289  12.441  26.416  1.00  0.00     0.018 A 
ATOM      2  C   UNL     1      21.642  12.196  25.089  1.00  0.00     0.035 A 
ATOM      3  C   UNL     1      22.806  12.679  24.536  1.00  0.00     0.042 A 
ATOM      4  C   UNL     1      23.673  13.459  25.291  1.00  0.00     0.029 A 
ATOM      5  C   UNL     1      23.341  13.709  26.611  1.00  0.00     0.042 A 
ATOM      6  C   UNL     1      22.185  13.191  27.161  1.00  0.00     0.129 A 
ATOM      7  F   UNL     1      21.897  13.427  28.467  1.00  0.00    -0.207 F 
ENDROOT
BRANCH   1   8
ATOM      8  C   UNL     1      19.997  11.890  26.999  1.00  0.00     0.105 C 
ATOM      9  C   UNL     1      18.876  11.696  26.003  1.00  0.00     0.195 C 
ATOM     10  N   UNL     1      19.527  12.682  28.135  1.00  0.00    -0.240 NA
ATOM     11  S   UNL     1      18.372  13.252  25.313  1.00  0.00     0.239 S 
ATOM     12  C   UNL     1      18.859  13.781  27.970  1.00  0.00     0.205 C 
ATOM     13  O   UNL     1      16.977  13.107  24.939  1.00  0.00    -0.206 OA
ATOM     14  N   UNL     1      18.423  14.254  26.712  1.00  0.00    -0.243 N 
ATOM     15  O   UNL     1      19.380  13.802  24.462  1.00  0.00    -0.206 OA
ATOM     16  N   UNL     1      18.490  14.577  29.021  1.00  0.00    -0.369 N 
ATOM     17  C   UNL     1      20.281  10.523  27.628  1.00  0.00     0.044 C 
ATOM     18  C   UNL     1      17.773  15.567  26.527  1.00  0.00     0.167 C 
ATOM     19  H   UNL     1      18.747  14.331  29.939  1.00  0.00     0.159 HD
ATOM     20  H   UNL     1      17.967  15.396  28.859  1.00  0.00     0.159 HD
ENDBRANCH   1   8
BRANCH   3  21
ATOM     21  N   UNL     1      23.040  12.363  23.191  1.00  0.00    -0.321 N 
ATOM     22  C   UNL     1      23.364  13.219  22.154  1.00  0.00     0.274 C 
ATOM     23  O   UNL     1      23.373  14.441  22.225  1.00  0.00    -0.267 OA
ATOM     24  H   UNL     1      22.965  11.410  22.955  1.00  0.00     0.170 HD
BRANCH  22  25
ATOM     25  C   UNL     1      23.758  12.557  20.886  1.00  0.00     0.128 A 
ATOM     26  N   UNL     1      24.442  13.305  20.015  1.00  0.00    -0.248 NA
ATOM     27  C   UNL     1      23.423  11.232  20.666  1.00  0.00     0.037 A 
ATOM     28  C   UNL     1      24.806  12.729  18.857  1.00  0.00     0.151 A 
ATOM     29  C   UNL     1      23.818  10.665  19.467  1.00  0.00     0.043 A 
ATOM     30  C   UNL     1      24.515  11.420  18.544  1.00  0.00     0.141 A 
ATOM     31  F   UNL     1      24.926  10.910  17.371  1.00  0.00    -0.205 F 
ENDBRANCH  22  25
ENDBRANCH   3  21
TORSDOF 3
ENDMDL
MODEL 19
REMARK VINA RESULT:    -7.428      5.836      9.676
REMARK INTER + INTRA:          -9.122
REMARK INTER:                  -9.521
REMARK INTRA:                   0.399
REMARK UNBOUND:                -0.392
REMARK SMILES CN1C(N)=N[C@](C)(c2cc(NC(=O)c3ccc(F)cn3)ccc2F)CS1(=O)=O
REMARK SMILES IDX 8 1 9 2 10 3 21 4 22 5 23 6 24 7 6 8 25 9 5 10 26 11 3 12
REMARK SMILES IDX 27 13 2 14 28 15 4 16 7 17 1 18 11 21 12 22 13 23 14 25
REMARK SMILES IDX 20 26 15 27 19 28 16 29 17 30 18 31
REMARK H PARENT 4 19 4 20 11 24
ROOT
ATOM      1  C   UNL     1      15.316   4.644  20.452  1.00  0.00     0.018 A 
ATOM      2  C   UNL     1      16.192   4.437  21.517  1.00  0.00     0.035 A 
ATOM      3  C   UNL     1      16.636   5.467  22.315  1.00  0.00     0.042 A 
ATOM      4  C   UNL     1      16.236   6.774  22.065  1.00  0.00     0.029 A 
ATOM      5  C   UNL     1      15.364   6.997  21.014  1.00  0.00     0.042 A 
ATOM      6  C   UNL     1      14.901   5.950  20.242  1.00  0.00     0.129 A 
ATOM      7  F   UNL     1      14.023   6.192  19.235  1.00  0.00    -0.207 F 
ENDROOT
BRANCH   1   8
ATOM      8  C   UNL     1      14.840   3.484  19.591  1.00  0.00     0.105 C 
ATOM      9  C   UNL     1      15.907   2.476  19.226  1.00  0.00     0.195 C 
ATOM     10  N   UNL     1      14.150   3.943  18.386  1.00  0.00    -0.240 NA
ATOM     11  S   UNL     1      17.164   3.229  18.224  1.00  0.00     0.239 S 
ATOM     12  C   UNL     1      14.801   4.320  17.330  1.00  0.00     0.205 C 
ATOM     13  O   UNL     1      17.727   2.172  17.404  1.00  0.00    -0.206 OA
ATOM     14  N   UNL     1      16.204   4.218  17.193  1.00  0.00    -0.243 N 
ATOM     15  O   UNL     1      17.942   4.168  18.971  1.00  0.00    -0.206 OA
ATOM     16  N   UNL     1      14.172   4.835  16.228  1.00  0.00    -0.369 N 
ATOM     17  C   UNL     1      13.745   2.725  20.345  1.00  0.00     0.044 C 
ATOM     18  C   UNL     1      16.941   4.765  16.037  1.00  0.00     0.167 C 
ATOM     19  H   UNL     1      13.193   4.945  16.227  1.00  0.00     0.159 HD
ATOM     20  H   UNL     1      14.697   5.094  15.437  1.00  0.00     0.159 HD
ENDBRANCH   1   8
BRANCH   3  21
ATOM     21  N   UNL     1      17.516   5.124  23.350  1.00  0.00    -0.321 N 
ATOM     22  C   UNL     1      18.898   5.203  23.362  1.00  0.00     0.274 C 
ATOM     23  O   UNL     1      19.596   5.473  22.393  1.00  0.00    -0.267 OA
ATOM     24  H   UNL     1      17.098   4.785  24.174  1.00  0.00     0.170 HD
BRANCH  22  25
ATOM     25  C   UNL     1      19.534   4.967  24.680  1.00  0.00     0.128 A 
ATOM     26  N   UNL     1      20.263   3.852  24.796  1.00  0.00    -0.248 NA
ATOM     27  C   UNL     1      19.364   5.884  25.703  1.00  0.00     0.037 A 
ATOM     28  C   UNL     1      20.846   3.615  25.983  1.00  0.00     0.151 A 
ATOM     29  C   UNL     1      19.982   5.615  26.912  1.00  0.00     0.043 A 
ATOM     30  C   UNL     1      20.730   4.463  27.061  1.00  0.00     0.141 A 
ATOM     31  F   UNL     1      21.356   4.165  28.212  1.00  0.00    -0.205 F 
ENDBRANCH  22  25
ENDBRANCH   3  21
TORSDOF 3
ENDMDL
MODEL 20
REMARK VINA RESULT:    -7.375      3.362      3.958
REMARK INTER + INTRA:          -9.060
REMARK INTER:                  -9.124
REMARK INTRA:                   0.063
REMARK UNBOUND:                -0.392
REMARK SMILES CN1C(N)=N[C@](C)(c2cc(NC(=O)c3ccc(F)cn3)ccc2F)CS1(=O)=O
REMARK SMILES IDX 8 1 9 2 10 3 21 4 22 5 23 6 24 7 6 8 25 9 5 10 26 11 3 12
REMARK SMILES IDX 27 13 2 14 28 15 4 16 7 17 1 18 11 21 12 22 13 23 14 25
REMARK SMILES IDX 20 26 15 27 19 28 16 29 17 30 18 31
REMARK H PARENT 4 19 4 20 11 24
ROOT
ATOM      1  C   UNL     1      18.829   8.839  24.257  1.00  0.00     0.018 A 
ATOM      2  C   UNL     1      17.992   7.927  23.616  1.00  0.00     0.035 A 
ATOM      3  C   UNL     1      16.914   8.325  22.857  1.00  0.00     0.042 A 
ATOM      4  C   UNL     1      16.608   9.673  22.722  1.00  0.00     0.029 A 
ATOM      5  C   UNL     1      17.430  10.592  23.349  1.00  0.00     0.042 A 
ATOM      6  C   UNL     1      18.527  10.180  24.081  1.00  0.00     0.129 A 
ATOM      7  F   UNL     1      19.335  11.104  24.662  1.00  0.00    -0.207 F 
ENDROOT
BRANCH   1   8
ATOM      8  C   UNL     1      20.014   8.368  25.086  1.00  0.00     0.105 C 
ATOM      9  C   UNL     1      21.369   8.591  24.452  1.00  0.00     0.195 C 
ATOM     10  N   UNL     1      19.876   6.972  25.497  1.00  0.00    -0.240 NA
ATOM     11  S   UNL     1      21.525   7.646  22.958  1.00  0.00     0.239 S 
ATOM     12  C   UNL     1      20.181   5.994  24.701  1.00  0.00     0.205 C 
ATOM     13  O   UNL     1      22.941   7.373  22.787  1.00  0.00    -0.206 OA
ATOM     14  N   UNL     1      20.776   6.170  23.432  1.00  0.00    -0.243 N 
ATOM     15  O   UNL     1      20.673   8.146  21.925  1.00  0.00    -0.206 OA
ATOM     16  N   UNL     1      19.974   4.684  25.040  1.00  0.00    -0.369 N 
ATOM     17  C   UNL     1      20.013   9.120  26.420  1.00  0.00     0.044 C 
ATOM     18  C   UNL     1      21.002   5.058  22.488  1.00  0.00     0.167 C 
ATOM     19  H   UNL     1      19.564   4.459  25.907  1.00  0.00     0.159 HD
ATOM     20  H   UNL     1      20.235   3.967  24.418  1.00  0.00     0.159 HD
ENDBRANCH   1   8
BRANCH   3  21
ATOM     21  N   UNL     1      16.152   7.308  22.268  1.00  0.00    -0.321 N 
ATOM     22  C   UNL     1      16.293   6.750  21.009  1.00  0.00     0.274 C 
ATOM     23  O   UNL     1      17.051   7.159  20.139  1.00  0.00    -0.267 OA
ATOM     24  H   UNL     1      15.423   6.943  22.820  1.00  0.00     0.170 HD
BRANCH  22  25
ATOM     25  C   UNL     1      15.468   5.545  20.755  1.00  0.00     0.128 A 
ATOM     26  N   UNL     1      15.561   4.561  21.655  1.00  0.00    -0.248 NA
ATOM     27  C   UNL     1      14.652   5.489  19.638  1.00  0.00     0.037 A 
ATOM     28  C   UNL     1      14.826   3.457  21.444  1.00  0.00     0.151 A 
ATOM     29  C   UNL     1      13.902   4.342  19.451  1.00  0.00     0.043 A 
ATOM     30  C   UNL     1      13.990   3.306  20.361  1.00  0.00     0.141 A 
ATOM     31  F   UNL     1      13.274   2.176  20.225  1.00  0.00    -0.205 F 
ENDBRANCH  22  25
ENDBRANCH   3  21
TORSDOF 3
ENDMDL
