MODEL 1
REMARK VINA RESULT:    -6.707      0.000      0.000
REMARK INTER + INTRA:         -10.331
REMARK INTER:                  -9.060
REMARK INTRA:                  -1.271
REMARK UNBOUND:                -1.271
REMARK SMILES COC(=O)C1=C(C)NC(C)=C(C(=O)OC(C)C)[C@@H]1c1cccc2nonc12
REMARK SMILES IDX 7 1 6 2 5 3 18 4 11 5 9 6 8 7 10 8 3 10 4 11 2 12 1 13 19 14
REMARK SMILES IDX 20 15 27 16 21 17 26 18 23 19 22 20 25 21 24 22 12 23 13 24
REMARK SMILES IDX 14 25 15 26 16 27 17 28
REMARK H PARENT 8 9
ROOT
ATOM      1  C   UNL     1     151.129 165.460 153.314  1.00  0.00     0.065 C 
ATOM      2  C   UNL     1     150.785 166.918 153.487  1.00  0.00     0.023 C 
ATOM      3  C   UNL     1     151.127 167.898 152.620  1.00  0.00     0.068 C 
ATOM      4  C   UNL     1     150.745 169.352 152.876  1.00  0.00     0.100 C 
ATOM      5  C   UNL     1     150.035 169.561 154.208  1.00  0.00     0.068 C 
ATOM      6  C   UNL     1     149.747 168.526 155.027  1.00  0.00     0.023 C 
ATOM      7  N   UNL     1     150.101 167.240 154.650  1.00  0.00    -0.362 N 
ATOM      8  C   UNL     1     149.095 168.657 156.380  1.00  0.00     0.065 C 
ATOM      9  H   UNL     1     149.825 166.475 155.261  1.00  0.00     0.166 HD
ENDROOT
BRANCH   3  10
ATOM     10  C   UNL     1     151.858 167.598 151.368  1.00  0.00     0.336 C 
ATOM     11  O   UNL     1     153.047 167.809 151.185  1.00  0.00    -0.246 OA
BRANCH  10  12
ATOM     12  O   UNL     1     151.001 167.058 150.464  1.00  0.00    -0.466 OA
ATOM     13  C   UNL     1     151.323 167.366 149.108  1.00  0.00     0.282 C 
ENDBRANCH  10  12
ENDBRANCH   3  10
BRANCH   4  14
ATOM     14  C   UNL     1     149.931 169.928 151.725  1.00  0.00    -0.004 A 
ATOM     15  C   UNL     1     148.524 169.733 151.651  1.00  0.00     0.007 A 
ATOM     16  C   UNL     1     150.446 170.674 150.634  1.00  0.00     0.139 A 
ATOM     17  C   UNL     1     147.704 170.234 150.605  1.00  0.00     0.003 A 
ATOM     18  N   UNL     1     151.708 171.036 150.367  1.00  0.00    -0.049 NA
ATOM     19  C   UNL     1     149.600 171.185 149.561  1.00  0.00     0.135 A 
ATOM     20  C   UNL     1     148.210 170.977 149.525  1.00  0.00     0.034 A 
ATOM     21  O   UNL     1     151.661 171.748 149.184  1.00  0.00    -0.243 OA
ATOM     22  N   UNL     1     150.374 171.837 148.686  1.00  0.00    -0.050 NA
ENDBRANCH   4  14
BRANCH   5  23
ATOM     23  C   UNL     1     149.729 170.970 154.531  1.00  0.00     0.337 C 
ATOM     24  O   UNL     1     148.589 171.406 154.602  1.00  0.00    -0.246 OA
BRANCH  23  25
ATOM     25  O   UNL     1     150.870 171.640 154.821  1.00  0.00    -0.460 OA
BRANCH  25  26
ATOM     26  C   UNL     1     151.183 171.785 156.217  1.00  0.00     0.170 C 
ATOM     27  C   UNL     1     152.702 171.795 156.337  1.00  0.00     0.052 C 
ATOM     28  C   UNL     1     150.588 173.087 156.740  1.00  0.00     0.052 C 
ENDBRANCH  25  26
ENDBRANCH  23  25
ENDBRANCH   5  23
TORSDOF 6
ENDMDL
MODEL 2
REMARK VINA RESULT:    -6.669      6.690     10.141
REMARK INTER + INTRA:         -10.279
REMARK INTER:                  -8.614
REMARK INTRA:                  -1.665
REMARK UNBOUND:                -1.271
REMARK SMILES COC(=O)C1=C(C)NC(C)=C(C(=O)OC(C)C)[C@@H]1c1cccc2nonc12
REMARK SMILES IDX 7 1 6 2 5 3 18 4 11 5 9 6 8 7 10 8 3 10 4 11 2 12 1 13 19 14
REMARK SMILES IDX 20 15 27 16 21 17 26 18 23 19 22 20 25 21 24 22 12 23 13 24
REMARK SMILES IDX 14 25 15 26 16 27 17 28
REMARK H PARENT 8 9
ROOT
ATOM      1  C   UNL     1     153.025 160.345 143.962  1.00  0.00     0.065 C 
ATOM      2  C   UNL     1     151.967 160.665 144.988  1.00  0.00     0.023 C 
ATOM      3  C   UNL     1     152.199 161.297 146.161  1.00  0.00     0.068 C 
ATOM      4  C   UNL     1     151.069 161.575 147.148  1.00  0.00     0.100 C 
ATOM      5  C   UNL     1     149.728 161.006 146.702  1.00  0.00     0.068 C 
ATOM      6  C   UNL     1     149.587 160.370 145.518  1.00  0.00     0.023 C 
ATOM      7  N   UNL     1     150.685 160.232 144.685  1.00  0.00    -0.362 N 
ATOM      8  C   UNL     1     148.309 159.737 145.031  1.00  0.00     0.065 C 
ATOM      9  H   UNL     1     150.538 159.795 143.778  1.00  0.00     0.166 HD
ENDROOT
BRANCH   3  10
ATOM     10  C   UNL     1     153.551 161.775 146.525  1.00  0.00     0.336 C 
ATOM     11  O   UNL     1     154.100 162.755 146.047  1.00  0.00    -0.246 OA
BRANCH  10  12
ATOM     12  O   UNL     1     154.080 160.953 147.469  1.00  0.00    -0.466 OA
ATOM     13  C   UNL     1     154.741 161.643 148.530  1.00  0.00     0.282 C 
ENDBRANCH  10  12
ENDBRANCH   3  10
BRANCH   4  14
ATOM     14  C   UNL     1     150.956 163.060 147.466  1.00  0.00    -0.004 A 
ATOM     15  C   UNL     1     150.534 163.992 146.478  1.00  0.00     0.007 A 
ATOM     16  C   UNL     1     151.257 163.669 148.710  1.00  0.00     0.139 A 
ATOM     17  C   UNL     1     150.413 165.389 146.701  1.00  0.00     0.003 A 
ATOM     18  N   UNL     1     151.690 163.114 149.850  1.00  0.00    -0.049 NA
ATOM     19  C   UNL     1     151.134 165.105 148.934  1.00  0.00     0.135 A 
ATOM     20  C   UNL     1     150.706 165.996 147.933  1.00  0.00     0.034 A 
ATOM     21  O   UNL     1     151.826 164.150 150.755  1.00  0.00    -0.243 OA
ATOM     22  N   UNL     1     151.491 165.371 150.196  1.00  0.00    -0.050 NA
ENDBRANCH   4  14
BRANCH   5  23
ATOM     23  C   UNL     1     148.629 161.179 147.675  1.00  0.00     0.337 C 
ATOM     24  O   UNL     1     147.730 161.993 147.528  1.00  0.00    -0.246 OA
BRANCH  23  25
ATOM     25  O   UNL     1     148.728 160.253 148.659  1.00  0.00    -0.460 OA
BRANCH  25  26
ATOM     26  C   UNL     1     147.928 160.485 149.831  1.00  0.00     0.170 C 
ATOM     27  C   UNL     1     147.476 159.122 150.341  1.00  0.00     0.052 C 
ATOM     28  C   UNL     1     148.761 161.210 150.881  1.00  0.00     0.052 C 
ENDBRANCH  25  26
ENDBRANCH  23  25
ENDBRANCH   5  23
TORSDOF 6
ENDMDL
MODEL 3
REMARK VINA RESULT:    -6.622      9.821     12.885
REMARK INTER + INTRA:         -10.216
REMARK INTER:                  -8.775
REMARK INTRA:                  -1.440
REMARK UNBOUND:                -1.271
REMARK SMILES COC(=O)C1=C(C)NC(C)=C(C(=O)OC(C)C)[C@@H]1c1cccc2nonc12
REMARK SMILES IDX 7 1 6 2 5 3 18 4 11 5 9 6 8 7 10 8 3 10 4 11 2 12 1 13 19 14
REMARK SMILES IDX 20 15 27 16 21 17 26 18 23 19 22 20 25 21 24 22 12 23 13 24
REMARK SMILES IDX 14 25 15 26 16 27 17 28
REMARK H PARENT 8 9
ROOT
ATOM      1  C   UNL     1     153.074 153.817 152.768  1.00  0.00     0.065 C 
ATOM      2  C   UNL     1     152.445 154.977 152.041  1.00  0.00     0.023 C 
ATOM      3  C   UNL     1     153.074 156.141 151.758  1.00  0.00     0.068 C 
ATOM      4  C   UNL     1     152.358 157.271 151.023  1.00  0.00     0.100 C 
ATOM      5  C   UNL     1     150.894 156.966 150.734  1.00  0.00     0.068 C 
ATOM      6  C   UNL     1     150.337 155.781 151.068  1.00  0.00     0.023 C 
ATOM      7  N   UNL     1     151.114 154.814 151.685  1.00  0.00    -0.362 N 
ATOM      8  C   UNL     1     148.888 155.425 150.862  1.00  0.00     0.065 C 
ATOM      9  H   UNL     1     150.684 153.913 151.877  1.00  0.00     0.166 HD
ENDROOT
BRANCH   3  10
ATOM     10  C   UNL     1     154.492 156.358 152.121  1.00  0.00     0.336 C 
ATOM     11  O   UNL     1     155.425 155.665 151.747  1.00  0.00    -0.246 OA
BRANCH  10  12
ATOM     12  O   UNL     1     154.588 157.445 152.931  1.00  0.00    -0.466 OA
ATOM     13  C   UNL     1     155.722 158.268 152.660  1.00  0.00     0.282 C 
ENDBRANCH  10  12
ENDBRANCH   3  10
BRANCH   4  14
ATOM     14  C   UNL     1     153.098 157.667 149.751  1.00  0.00    -0.004 A 
ATOM     15  C   UNL     1     153.241 156.753 148.670  1.00  0.00     0.007 A 
ATOM     16  C   UNL     1     153.715 158.919 149.505  1.00  0.00     0.139 A 
ATOM     17  C   UNL     1     153.922 157.051 147.461  1.00  0.00     0.003 A 
ATOM     18  N   UNL     1     153.793 160.002 150.290  1.00  0.00    -0.049 NA
ATOM     19  C   UNL     1     154.415 159.220 148.262  1.00  0.00     0.135 A 
ATOM     20  C   UNL     1     154.531 158.292 147.211  1.00  0.00     0.034 A 
ATOM     21  O   UNL     1     154.503 160.946 149.573  1.00  0.00    -0.243 OA
ATOM     22  N   UNL     1     154.890 160.469 148.333  1.00  0.00    -0.050 NA
ENDBRANCH   4  14
BRANCH   5  23
ATOM     23  C   UNL     1     150.146 158.073 150.102  1.00  0.00     0.337 C 
ATOM     24  O   UNL     1     149.876 158.101 148.911  1.00  0.00    -0.246 OA
BRANCH  23  25
ATOM     25  O   UNL     1     149.741 158.958 151.044  1.00  0.00    -0.460 OA
BRANCH  25  26
ATOM     26  C   UNL     1     148.594 159.760 150.709  1.00  0.00     0.170 C 
ATOM     27  C   UNL     1     147.362 158.891 150.925  1.00  0.00     0.052 C 
ATOM     28  C   UNL     1     148.555 160.991 151.606  1.00  0.00     0.052 C 
ENDBRANCH  25  26
ENDBRANCH  23  25
ENDBRANCH   5  23
TORSDOF 6
ENDMDL
MODEL 4
REMARK VINA RESULT:    -6.619      6.563     10.051
REMARK INTER + INTRA:         -10.212
REMARK INTER:                  -8.786
REMARK INTRA:                  -1.426
REMARK UNBOUND:                -1.271
REMARK SMILES COC(=O)C1=C(C)NC(C)=C(C(=O)OC(C)C)[C@@H]1c1cccc2nonc12
REMARK SMILES IDX 7 1 6 2 5 3 18 4 11 5 9 6 8 7 10 8 3 10 4 11 2 12 1 13 19 14
REMARK SMILES IDX 20 15 27 16 21 17 26 18 23 19 22 20 25 21 24 22 12 23 13 24
REMARK SMILES IDX 14 25 15 26 16 27 17 28
REMARK H PARENT 8 9
ROOT
ATOM      1  C   UNL     1     151.828 160.220 152.222  1.00  0.00     0.065 C 
ATOM      2  C   UNL     1     152.079 160.649 150.798  1.00  0.00     0.023 C 
ATOM      3  C   UNL     1     151.126 161.095 149.949  1.00  0.00     0.068 C 
ATOM      4  C   UNL     1     151.466 161.502 148.518  1.00  0.00     0.100 C 
ATOM      5  C   UNL     1     152.931 161.277 148.162  1.00  0.00     0.068 C 
ATOM      6  C   UNL     1     153.817 160.809 149.069  1.00  0.00     0.023 C 
ATOM      7  N   UNL     1     153.389 160.529 150.356  1.00  0.00    -0.362 N 
ATOM      8  C   UNL     1     155.265 160.513 148.779  1.00  0.00     0.065 C 
ATOM      9  H   UNL     1     154.087 160.229 151.032  1.00  0.00     0.166 HD
ENDROOT
BRANCH   3  10
ATOM     10  C   UNL     1     149.717 161.237 150.378  1.00  0.00     0.336 C 
ATOM     11  O   UNL     1     149.307 162.071 151.171  1.00  0.00    -0.246 OA
BRANCH  10  12
ATOM     12  O   UNL     1     148.959 160.298 149.754  1.00  0.00    -0.466 OA
ATOM     13  C   UNL     1     147.830 160.834 149.063  1.00  0.00     0.282 C 
ENDBRANCH  10  12
ENDBRANCH   3  10
BRANCH   4  14
ATOM     14  C   UNL     1     151.046 162.938 148.230  1.00  0.00    -0.004 A 
ATOM     15  C   UNL     1     150.142 163.241 147.175  1.00  0.00     0.007 A 
ATOM     16  C   UNL     1     151.491 164.089 148.928  1.00  0.00     0.139 A 
ATOM     17  C   UNL     1     149.713 164.554 146.846  1.00  0.00     0.003 A 
ATOM     18  N   UNL     1     152.343 164.188 149.957  1.00  0.00    -0.049 NA
ATOM     19  C   UNL     1     151.049 165.436 148.586  1.00  0.00     0.135 A 
ATOM     20  C   UNL     1     150.148 165.697 147.538  1.00  0.00     0.034 A 
ATOM     21  O   UNL     1     152.430 165.534 150.256  1.00  0.00    -0.243 OA
ATOM     22  N   UNL     1     151.643 166.302 149.416  1.00  0.00    -0.050 NA
ENDBRANCH   4  14
BRANCH   5  23
ATOM     23  C   UNL     1     153.278 161.577 146.757  1.00  0.00     0.337 C 
ATOM     24  O   UNL     1     153.960 162.536 146.429  1.00  0.00    -0.246 OA
BRANCH  23  25
ATOM     25  O   UNL     1     152.816 160.597 145.944  1.00  0.00    -0.460 OA
BRANCH  25  26
ATOM     26  C   UNL     1     153.393 160.541 144.628  1.00  0.00     0.170 C 
ATOM     27  C   UNL     1     154.436 159.430 144.642  1.00  0.00     0.052 C 
ATOM     28  C   UNL     1     152.301 160.247 143.606  1.00  0.00     0.052 C 
ENDBRANCH  25  26
ENDBRANCH  23  25
ENDBRANCH   5  23
TORSDOF 6
ENDMDL
MODEL 5
REMARK VINA RESULT:    -6.619      1.865      2.369
REMARK INTER + INTRA:         -10.212
REMARK INTER:                  -9.162
REMARK INTRA:                  -1.049
REMARK UNBOUND:                -1.271
REMARK SMILES COC(=O)C1=C(C)NC(C)=C(C(=O)OC(C)C)[C@@H]1c1cccc2nonc12
REMARK SMILES IDX 7 1 6 2 5 3 18 4 11 5 9 6 8 7 10 8 3 10 4 11 2 12 1 13 19 14
REMARK SMILES IDX 20 15 27 16 21 17 26 18 23 19 22 20 25 21 24 22 12 23 13 24
REMARK SMILES IDX 14 25 15 26 16 27 17 28
REMARK H PARENT 8 9
ROOT
ATOM      1  C   UNL     1     150.609 165.906 152.840  1.00  0.00     0.065 C 
ATOM      2  C   UNL     1     150.405 167.235 153.522  1.00  0.00     0.023 C 
ATOM      3  C   UNL     1     151.001 168.391 153.149  1.00  0.00     0.068 C 
ATOM      4  C   UNL     1     150.745 169.693 153.902  1.00  0.00     0.100 C 
ATOM      5  C   UNL     1     149.841 169.518 155.115  1.00  0.00     0.068 C 
ATOM      6  C   UNL     1     149.299 168.320 155.429  1.00  0.00     0.023 C 
ATOM      7  N   UNL     1     149.568 167.222 154.628  1.00  0.00    -0.362 N 
ATOM      8  C   UNL     1     148.440 168.056 156.638  1.00  0.00     0.065 C 
ATOM      9  H   UNL     1     149.105 166.345 154.857  1.00  0.00     0.166 HD
ENDROOT
BRANCH   3  10
ATOM     10  C   UNL     1     151.902 168.450 151.977  1.00  0.00     0.336 C 
ATOM     11  O   UNL     1     151.607 168.922 150.890  1.00  0.00    -0.246 OA
BRANCH  10  12
ATOM     12  O   UNL     1     153.100 167.898 152.301  1.00  0.00    -0.466 OA
ATOM     13  C   UNL     1     153.677 167.117 151.255  1.00  0.00     0.282 C 
ENDBRANCH  10  12
ENDBRANCH   3  10
BRANCH   4  14
ATOM     14  C   UNL     1     150.215 170.780 152.975  1.00  0.00    -0.004 A 
ATOM     15  C   UNL     1     150.838 172.057 152.908  1.00  0.00     0.007 A 
ATOM     16  C   UNL     1     149.087 170.667 152.123  1.00  0.00     0.139 A 
ATOM     17  C   UNL     1     150.393 173.116 152.074  1.00  0.00     0.003 A 
ATOM     18  N   UNL     1     148.258 169.631 151.935  1.00  0.00    -0.049 NA
ATOM     19  C   UNL     1     148.633 171.759 151.269  1.00  0.00     0.135 A 
ATOM     20  C   UNL     1     149.280 173.008 151.225  1.00  0.00     0.034 A 
ATOM     21  O   UNL     1     147.329 170.046 151.001  1.00  0.00    -0.243 OA
ATOM     22  N   UNL     1     147.553 171.350 150.594  1.00  0.00    -0.050 NA
ENDBRANCH   4  14
BRANCH   5  23
ATOM     23  C   UNL     1     149.642 170.742 155.920  1.00  0.00     0.337 C 
ATOM     24  O   UNL     1     148.605 171.387 155.907  1.00  0.00    -0.246 OA
BRANCH  23  25
ATOM     25  O   UNL     1     150.719 170.957 156.713  1.00  0.00    -0.460 OA
BRANCH  25  26
ATOM     26  C   UNL     1     151.463 172.161 156.458  1.00  0.00     0.170 C 
ATOM     27  C   UNL     1     150.970 173.210 157.448  1.00  0.00     0.052 C 
ATOM     28  C   UNL     1     152.951 171.889 156.651  1.00  0.00     0.052 C 
ENDBRANCH  25  26
ENDBRANCH  23  25
ENDBRANCH   5  23
TORSDOF 6
ENDMDL
MODEL 6
REMARK VINA RESULT:    -6.595      8.294     11.650
REMARK INTER + INTRA:         -10.180
REMARK INTER:                  -8.300
REMARK INTRA:                  -1.880
REMARK UNBOUND:                -1.271
REMARK SMILES COC(=O)C1=C(C)NC(C)=C(C(=O)OC(C)C)[C@@H]1c1cccc2nonc12
REMARK SMILES IDX 7 1 6 2 5 3 18 4 11 5 9 6 8 7 10 8 3 10 4 11 2 12 1 13 19 14
REMARK SMILES IDX 20 15 27 16 21 17 26 18 23 19 22 20 25 21 24 22 12 23 13 24
REMARK SMILES IDX 14 25 15 26 16 27 17 28
REMARK H PARENT 8 9
ROOT
ATOM      1  C   UNL     1     148.865 155.849 150.250  1.00  0.00     0.065 C 
ATOM      2  C   UNL     1     149.604 157.127 150.553  1.00  0.00     0.023 C 
ATOM      3  C   UNL     1     150.903 157.197 150.924  1.00  0.00     0.068 C 
ATOM      4  C   UNL     1     151.572 158.536 151.221  1.00  0.00     0.100 C 
ATOM      5  C   UNL     1     150.616 159.719 151.128  1.00  0.00     0.068 C 
ATOM      6  C   UNL     1     149.324 159.559 150.767  1.00  0.00     0.023 C 
ATOM      7  N   UNL     1     148.853 158.290 150.468  1.00  0.00    -0.362 N 
ATOM      8  C   UNL     1     148.307 160.669 150.702  1.00  0.00     0.065 C 
ATOM      9  H   UNL     1     147.891 158.207 150.148  1.00  0.00     0.166 HD
ENDROOT
BRANCH   3  10
ATOM     10  C   UNL     1     151.740 155.981 151.028  1.00  0.00     0.336 C 
ATOM     11  O   UNL     1     152.229 155.385 150.082  1.00  0.00    -0.246 OA
BRANCH  10  12
ATOM     12  O   UNL     1     151.875 155.638 152.336  1.00  0.00    -0.466 OA
ATOM     13  C   UNL     1     153.232 155.512 152.762  1.00  0.00     0.282 C 
ENDBRANCH  10  12
ENDBRANCH   3  10
BRANCH   4  14
ATOM     14  C   UNL     1     152.800 158.753 150.346  1.00  0.00    -0.004 A 
ATOM     15  C   UNL     1     152.692 158.802 148.928  1.00  0.00     0.007 A 
ATOM     16  C   UNL     1     154.132 158.908 150.807  1.00  0.00     0.139 A 
ATOM     17  C   UNL     1     153.793 158.994 148.052  1.00  0.00     0.003 A 
ATOM     18  N   UNL     1     154.608 158.902 152.059  1.00  0.00    -0.049 NA
ATOM     19  C   UNL     1     155.260 159.103 149.903  1.00  0.00     0.135 A 
ATOM     20  C   UNL     1     155.113 159.153 148.505  1.00  0.00     0.034 A 
ATOM     21  O   UNL     1     155.972 159.092 151.952  1.00  0.00    -0.243 OA
ATOM     22  N   UNL     1     156.375 159.211 150.634  1.00  0.00    -0.050 NA
ENDBRANCH   4  14
BRANCH   5  23
ATOM     23  C   UNL     1     151.209 161.022 151.496  1.00  0.00     0.337 C 
ATOM     24  O   UNL     1     151.569 161.295 152.630  1.00  0.00    -0.246 OA
BRANCH  23  25
ATOM     25  O   UNL     1     151.369 161.787 150.390  1.00  0.00    -0.460 OA
BRANCH  25  26
ATOM     26  C   UNL     1     152.373 162.815 150.470  1.00  0.00     0.170 C 
ATOM     27  C   UNL     1     153.466 162.452 149.473  1.00  0.00     0.052 C 
ATOM     28  C   UNL     1     151.750 164.163 150.127  1.00  0.00     0.052 C 
ENDBRANCH  25  26
ENDBRANCH  23  25
ENDBRANCH   5  23
TORSDOF 6
ENDMDL
MODEL 7
REMARK VINA RESULT:    -6.581      9.073     12.458
REMARK INTER + INTRA:         -10.160
REMARK INTER:                  -8.324
REMARK INTRA:                  -1.836
REMARK UNBOUND:                -1.271
REMARK SMILES COC(=O)C1=C(C)NC(C)=C(C(=O)OC(C)C)[C@@H]1c1cccc2nonc12
REMARK SMILES IDX 7 1 6 2 5 3 18 4 11 5 9 6 8 7 10 8 3 10 4 11 2 12 1 13 19 14
REMARK SMILES IDX 20 15 27 16 21 17 26 18 23 19 22 20 25 21 24 22 12 23 13 24
REMARK SMILES IDX 14 25 15 26 16 27 17 28
REMARK H PARENT 8 9
ROOT
ATOM      1  C   UNL     1     154.160 159.662 144.812  1.00  0.00     0.065 C 
ATOM      2  C   UNL     1     154.431 159.416 146.274  1.00  0.00     0.023 C 
ATOM      3  C   UNL     1     153.807 160.055 147.291  1.00  0.00     0.068 C 
ATOM      4  C   UNL     1     154.148 159.751 148.746  1.00  0.00     0.100 C 
ATOM      5  C   UNL     1     155.282 158.745 148.900  1.00  0.00     0.068 C 
ATOM      6  C   UNL     1     155.865 158.166 147.828  1.00  0.00     0.023 C 
ATOM      7  N   UNL     1     155.423 158.489 146.555  1.00  0.00    -0.362 N 
ATOM      8  C   UNL     1     157.023 157.204 147.896  1.00  0.00     0.065 C 
ATOM      9  H   UNL     1     155.844 157.999 145.770  1.00  0.00     0.166 HD
ENDROOT
BRANCH   3  10
ATOM     10  C   UNL     1     152.743 161.052 147.037  1.00  0.00     0.336 C 
ATOM     11  O   UNL     1     151.619 160.791 146.638  1.00  0.00    -0.246 OA
BRANCH  10  12
ATOM     12  O   UNL     1     153.217 162.295 147.315  1.00  0.00    -0.466 OA
ATOM     13  C   UNL     1     152.325 163.090 148.097  1.00  0.00     0.282 C 
ENDBRANCH  10  12
ENDBRANCH   3  10
BRANCH   4  14
ATOM     14  C   UNL     1     152.916 159.313 149.529  1.00  0.00    -0.004 A 
ATOM     15  C   UNL     1     152.194 158.142 149.168  1.00  0.00     0.007 A 
ATOM     16  C   UNL     1     152.357 159.988 150.644  1.00  0.00     0.139 A 
ATOM     17  C   UNL     1     151.036 157.680 149.846  1.00  0.00     0.003 A 
ATOM     18  N   UNL     1     152.757 161.115 151.248  1.00  0.00    -0.049 NA
ATOM     19  C   UNL     1     151.166 159.510 151.337  1.00  0.00     0.135 A 
ATOM     20  C   UNL     1     150.481 158.343 150.954  1.00  0.00     0.034 A 
ATOM     21  O   UNL     1     151.864 161.335 152.280  1.00  0.00    -0.243 OA
ATOM     22  N   UNL     1     150.887 160.357 152.334  1.00  0.00    -0.050 NA
ENDBRANCH   4  14
BRANCH   5  23
ATOM     23  C   UNL     1     155.699 158.492 150.295  1.00  0.00     0.337 C 
ATOM     24  O   UNL     1     156.275 159.324 150.980  1.00  0.00    -0.246 OA
BRANCH  23  25
ATOM     25  O   UNL     1     155.263 157.275 150.698  1.00  0.00    -0.460 OA
BRANCH  25  26
ATOM     26  C   UNL     1     155.279 157.032 152.116  1.00  0.00     0.170 C 
ATOM     27  C   UNL     1     153.870 157.299 152.632  1.00  0.00     0.052 C 
ATOM     28  C   UNL     1     155.690 155.589 152.380  1.00  0.00     0.052 C 
ENDBRANCH  25  26
ENDBRANCH  23  25
ENDBRANCH   5  23
TORSDOF 6
ENDMDL
MODEL 8
REMARK VINA RESULT:    -6.547     10.731     14.039
REMARK INTER + INTRA:         -10.114
REMARK INTER:                  -8.417
REMARK INTRA:                  -1.697
REMARK UNBOUND:                -1.271
REMARK SMILES COC(=O)C1=C(C)NC(C)=C(C(=O)OC(C)C)[C@@H]1c1cccc2nonc12
REMARK SMILES IDX 7 1 6 2 5 3 18 4 11 5 9 6 8 7 10 8 3 10 4 11 2 12 1 13 19 14
REMARK SMILES IDX 20 15 27 16 21 17 26 18 23 19 22 20 25 21 24 22 12 23 13 24
REMARK SMILES IDX 14 25 15 26 16 27 17 28
REMARK H PARENT 8 9
ROOT
ATOM      1  C   UNL     1     145.999 157.881 145.185  1.00  0.00     0.065 C 
ATOM      2  C   UNL     1     146.656 158.106 146.523  1.00  0.00     0.023 C 
ATOM      3  C   UNL     1     146.368 157.412 147.648  1.00  0.00     0.068 C 
ATOM      4  C   UNL     1     147.076 157.711 148.966  1.00  0.00     0.100 C 
ATOM      5  C   UNL     1     148.043 158.885 148.877  1.00  0.00     0.068 C 
ATOM      6  C   UNL     1     148.260 159.537 147.713  1.00  0.00     0.023 C 
ATOM      7  N   UNL     1     147.591 159.129 146.570  1.00  0.00    -0.362 N 
ATOM      8  C   UNL     1     149.159 160.736 147.555  1.00  0.00     0.065 C 
ATOM      9  H   UNL     1     147.813 159.604 145.698  1.00  0.00     0.166 HD
ENDROOT
BRANCH   3  10
ATOM     10  C   UNL     1     145.376 156.314 147.644  1.00  0.00     0.336 C 
ATOM     11  O   UNL     1     145.564 155.204 147.171  1.00  0.00    -0.246 OA
BRANCH  10  12
ATOM     12  O   UNL     1     144.233 156.736 148.244  1.00  0.00    -0.466 OA
ATOM     13  C   UNL     1     143.884 155.990 149.409  1.00  0.00     0.282 C 
ENDBRANCH  10  12
ENDBRANCH   3  10
BRANCH   4  14
ATOM     14  C   UNL     1     147.767 156.472 149.523  1.00  0.00    -0.004 A 
ATOM     15  C   UNL     1     147.403 155.934 150.788  1.00  0.00     0.007 A 
ATOM     16  C   UNL     1     148.812 155.750 148.892  1.00  0.00     0.139 A 
ATOM     17  C   UNL     1     148.008 154.789 151.370  1.00  0.00     0.003 A 
ATOM     18  N   UNL     1     149.413 155.971 147.715  1.00  0.00    -0.049 NA
ATOM     19  C   UNL     1     149.432 154.576 149.495  1.00  0.00     0.135 A 
ATOM     20  C   UNL     1     149.041 154.068 150.747  1.00  0.00     0.034 A 
ATOM     21  O   UNL     1     150.363 154.977 147.577  1.00  0.00    -0.243 OA
ATOM     22  N   UNL     1     150.381 154.124 148.666  1.00  0.00    -0.050 NA
ENDBRANCH   4  14
BRANCH   5  23
ATOM     23  C   UNL     1     148.681 159.259 150.156  1.00  0.00     0.337 C 
ATOM     24  O   UNL     1     148.049 159.634 151.132  1.00  0.00    -0.246 OA
BRANCH  23  25
ATOM     25  O   UNL     1     150.014 159.028 150.096  1.00  0.00    -0.460 OA
BRANCH  25  26
ATOM     26  C   UNL     1     150.629 158.541 151.302  1.00  0.00     0.170 C 
ATOM     27  C   UNL     1     151.454 157.318 150.922  1.00  0.00     0.052 C 
ATOM     28  C   UNL     1     151.514 159.630 151.897  1.00  0.00     0.052 C 
ENDBRANCH  25  26
ENDBRANCH  23  25
ENDBRANCH   5  23
TORSDOF 6
ENDMDL
MODEL 9
REMARK VINA RESULT:    -6.523      7.109     10.069
REMARK INTER + INTRA:         -10.082
REMARK INTER:                  -8.398
REMARK INTRA:                  -1.685
REMARK UNBOUND:                -1.271
REMARK SMILES COC(=O)C1=C(C)NC(C)=C(C(=O)OC(C)C)[C@@H]1c1cccc2nonc12
REMARK SMILES IDX 7 1 6 2 5 3 18 4 11 5 9 6 8 7 10 8 3 10 4 11 2 12 1 13 19 14
REMARK SMILES IDX 20 15 27 16 21 17 26 18 23 19 22 20 25 21 24 22 12 23 13 24
REMARK SMILES IDX 14 25 15 26 16 27 17 28
REMARK H PARENT 8 9
ROOT
ATOM      1  C   UNL     1     151.934 157.367 150.848  1.00  0.00     0.065 C 
ATOM      2  C   UNL     1     152.119 158.807 150.440  1.00  0.00     0.023 C 
ATOM      3  C   UNL     1     153.317 159.410 150.266  1.00  0.00     0.068 C 
ATOM      4  C   UNL     1     153.415 160.877 149.860  1.00  0.00     0.100 C 
ATOM      5  C   UNL     1     152.059 161.564 149.759  1.00  0.00     0.068 C 
ATOM      6  C   UNL     1     150.906 160.891 149.968  1.00  0.00     0.023 C 
ATOM      7  N   UNL     1     150.953 159.541 150.278  1.00  0.00    -0.362 N 
ATOM      8  C   UNL     1     149.532 161.509 149.938  1.00  0.00     0.065 C 
ATOM      9  H   UNL     1     150.069 159.048 150.378  1.00  0.00     0.166 HD
ENDROOT
BRANCH   3  10
ATOM     10  C   UNL     1     154.586 158.665 150.430  1.00  0.00     0.336 C 
ATOM     11  O   UNL     1     155.021 157.842 149.641  1.00  0.00    -0.246 OA
BRANCH  10  12
ATOM     12  O   UNL     1     155.181 159.041 151.592  1.00  0.00    -0.466 OA
ATOM     13  C   UNL     1     155.507 157.949 152.452  1.00  0.00     0.282 C 
ENDBRANCH  10  12
ENDBRANCH   3  10
BRANCH   4  14
ATOM     14  C   UNL     1     154.213 161.050 148.574  1.00  0.00    -0.004 A 
ATOM     15  C   UNL     1     153.756 160.498 147.346  1.00  0.00     0.007 A 
ATOM     16  C   UNL     1     155.452 161.729 148.450  1.00  0.00     0.139 A 
ATOM     17  C   UNL     1     154.451 160.613 146.113  1.00  0.00     0.003 A 
ATOM     18  N   UNL     1     156.181 162.354 149.385  1.00  0.00    -0.049 NA
ATOM     19  C   UNL     1     156.163 161.844 147.181  1.00  0.00     0.135 A 
ATOM     20  C   UNL     1     155.675 161.289 145.984  1.00  0.00     0.034 A 
ATOM     21  O   UNL     1     157.297 162.846 148.736  1.00  0.00    -0.243 OA
ATOM     22  N   UNL     1     157.292 162.532 147.388  1.00  0.00    -0.050 NA
ENDBRANCH   4  14
BRANCH   5  23
ATOM     23  C   UNL     1     152.119 163.009 149.454  1.00  0.00     0.337 C 
ATOM     24  O   UNL     1     151.715 163.487 148.405  1.00  0.00    -0.246 OA
BRANCH  23  25
ATOM     25  O   UNL     1     152.583 163.692 150.528  1.00  0.00    -0.460 OA
BRANCH  25  26
ATOM     26  C   UNL     1     151.590 164.316 151.361  1.00  0.00     0.170 C 
ATOM     27  C   UNL     1     151.812 163.805 152.780  1.00  0.00     0.052 C 
ATOM     28  C   UNL     1     151.750 165.830 151.297  1.00  0.00     0.052 C 
ENDBRANCH  25  26
ENDBRANCH  23  25
ENDBRANCH   5  23
TORSDOF 6
ENDMDL
MODEL 10
REMARK VINA RESULT:    -6.520      6.364      9.881
REMARK INTER + INTRA:         -10.078
REMARK INTER:                  -8.584
REMARK INTRA:                  -1.494
REMARK UNBOUND:                -1.271
REMARK SMILES COC(=O)C1=C(C)NC(C)=C(C(=O)OC(C)C)[C@@H]1c1cccc2nonc12
REMARK SMILES IDX 7 1 6 2 5 3 18 4 11 5 9 6 8 7 10 8 3 10 4 11 2 12 1 13 19 14
REMARK SMILES IDX 20 15 27 16 21 17 26 18 23 19 22 20 25 21 24 22 12 23 13 24
REMARK SMILES IDX 14 25 15 26 16 27 17 28
REMARK H PARENT 8 9
ROOT
ATOM      1  C   UNL     1     155.159 161.185 146.054  1.00  0.00     0.065 C 
ATOM      2  C   UNL     1     153.794 161.347 146.674  1.00  0.00     0.023 C 
ATOM      3  C   UNL     1     153.565 161.533 147.994  1.00  0.00     0.068 C 
ATOM      4  C   UNL     1     152.148 161.680 148.541  1.00  0.00     0.100 C 
ATOM      5  C   UNL     1     151.073 161.517 147.473  1.00  0.00     0.068 C 
ATOM      6  C   UNL     1     151.389 161.315 146.175  1.00  0.00     0.023 C 
ATOM      7  N   UNL     1     152.721 161.256 145.800  1.00  0.00    -0.362 N 
ATOM      8  C   UNL     1     150.386 161.094 145.072  1.00  0.00     0.065 C 
ATOM      9  H   UNL     1     152.929 161.155 144.809  1.00  0.00     0.166 HD
ENDROOT
BRANCH   3  10
ATOM     10  C   UNL     1     154.680 161.634 148.963  1.00  0.00     0.336 C 
ATOM     11  O   UNL     1     155.476 162.558 149.020  1.00  0.00    -0.246 OA
BRANCH  10  12
ATOM     12  O   UNL     1     154.675 160.541 149.770  1.00  0.00    -0.466 OA
ATOM     13  C   UNL     1     155.677 159.578 149.443  1.00  0.00     0.282 C 
ENDBRANCH  10  12
ENDBRANCH   3  10
BRANCH   4  14
ATOM     14  C   UNL     1     151.975 162.989 149.299  1.00  0.00    -0.004 A 
ATOM     15  C   UNL     1     151.712 164.207 148.612  1.00  0.00     0.007 A 
ATOM     16  C   UNL     1     152.064 163.153 150.705  1.00  0.00     0.139 A 
ATOM     17  C   UNL     1     151.546 165.463 149.253  1.00  0.00     0.003 A 
ATOM     18  N   UNL     1     152.309 162.243 151.657  1.00  0.00    -0.049 NA
ATOM     19  C   UNL     1     151.895 164.446 151.358  1.00  0.00     0.135 A 
ATOM     20  C   UNL     1     151.630 165.629 150.645  1.00  0.00     0.034 A 
ATOM     21  O   UNL     1     152.289 162.928 152.857  1.00  0.00    -0.243 OA
ATOM     22  N   UNL     1     152.040 164.277 152.678  1.00  0.00    -0.050 NA
ENDBRANCH   4  14
BRANCH   5  23
ATOM     23  C   UNL     1     149.686 161.565 147.981  1.00  0.00     0.337 C 
ATOM     24  O   UNL     1     148.870 162.396 147.613  1.00  0.00    -0.246 OA
BRANCH  23  25
ATOM     25  O   UNL     1     149.457 160.518 148.809  1.00  0.00    -0.460 OA
BRANCH  25  26
ATOM     26  C   UNL     1     148.363 160.665 149.730  1.00  0.00     0.170 C 
ATOM     27  C   UNL     1     147.856 159.264 150.052  1.00  0.00     0.052 C 
ATOM     28  C   UNL     1     148.851 161.369 150.991  1.00  0.00     0.052 C 
ENDBRANCH  25  26
ENDBRANCH  23  25
ENDBRANCH   5  23
TORSDOF 6
ENDMDL
MODEL 11
REMARK VINA RESULT:    -6.476      7.170     10.209
REMARK INTER + INTRA:         -10.018
REMARK INTER:                  -8.335
REMARK INTRA:                  -1.684
REMARK UNBOUND:                -1.271
REMARK SMILES COC(=O)C1=C(C)NC(C)=C(C(=O)OC(C)C)[C@@H]1c1cccc2nonc12
REMARK SMILES IDX 7 1 6 2 5 3 18 4 11 5 9 6 8 7 10 8 3 10 4 11 2 12 1 13 19 14
REMARK SMILES IDX 20 15 27 16 21 17 26 18 23 19 22 20 25 21 24 22 12 23 13 24
REMARK SMILES IDX 14 25 15 26 16 27 17 28
REMARK H PARENT 8 9
ROOT
ATOM      1  C   UNL     1     156.017 159.294 149.655  1.00  0.00     0.065 C 
ATOM      2  C   UNL     1     154.814 160.041 149.137  1.00  0.00     0.023 C 
ATOM      3  C   UNL     1     153.572 159.964 149.667  1.00  0.00     0.068 C 
ATOM      4  C   UNL     1     152.407 160.750 149.075  1.00  0.00     0.100 C 
ATOM      5  C   UNL     1     152.784 161.531 147.822  1.00  0.00     0.068 C 
ATOM      6  C   UNL     1     154.049 161.540 147.347  1.00  0.00     0.023 C 
ATOM      7  N   UNL     1     155.031 160.826 148.014  1.00  0.00    -0.362 N 
ATOM      8  C   UNL     1     154.489 162.245 146.090  1.00  0.00     0.065 C 
ATOM      9  H   UNL     1     155.984 160.893 147.664  1.00  0.00     0.166 HD
ENDROOT
BRANCH   3  10
ATOM     10  C   UNL     1     153.296 159.138 150.864  1.00  0.00     0.336 C 
ATOM     11  O   UNL     1     153.555 159.462 152.013  1.00  0.00    -0.246 OA
BRANCH  10  12
ATOM     12  O   UNL     1     152.714 157.972 150.482  1.00  0.00    -0.466 OA
ATOM     13  C   UNL     1     153.363 156.809 150.996  1.00  0.00     0.282 C 
ENDBRANCH  10  12
ENDBRANCH   3  10
BRANCH   4  14
ATOM     14  C   UNL     1     151.759 161.657 150.113  1.00  0.00    -0.004 A 
ATOM     15  C   UNL     1     152.475 162.741 150.690  1.00  0.00     0.007 A 
ATOM     16  C   UNL     1     150.440 161.531 150.618  1.00  0.00     0.139 A 
ATOM     17  C   UNL     1     151.938 163.621 151.666  1.00  0.00     0.003 A 
ATOM     18  N   UNL     1     149.493 160.632 150.320  1.00  0.00    -0.049 NA
ATOM     19  C   UNL     1     149.893 162.436 151.623  1.00  0.00     0.135 A 
ATOM     20  C   UNL     1     150.630 163.503 152.166  1.00  0.00     0.034 A 
ATOM     21  O   UNL     1     148.395 160.958 151.094  1.00  0.00    -0.243 OA
ATOM     22  N   UNL     1     148.638 162.059 151.896  1.00  0.00    -0.050 NA
ENDBRANCH   4  14
BRANCH   5  23
ATOM     23  C   UNL     1     151.659 162.234 147.170  1.00  0.00     0.337 C 
ATOM     24  O   UNL     1     150.682 161.655 146.721  1.00  0.00    -0.246 OA
BRANCH  23  25
ATOM     25  O   UNL     1     151.842 163.574 147.245  1.00  0.00    -0.460 OA
BRANCH  25  26
ATOM     26  C   UNL     1     150.688 164.353 147.606  1.00  0.00     0.170 C 
ATOM     27  C   UNL     1     151.155 165.411 148.598  1.00  0.00     0.052 C 
ATOM     28  C   UNL     1     150.099 164.999 146.358  1.00  0.00     0.052 C 
ENDBRANCH  25  26
ENDBRANCH  23  25
ENDBRANCH   5  23
TORSDOF 6
ENDMDL
MODEL 12
REMARK VINA RESULT:    -6.424     10.831     13.865
REMARK INTER + INTRA:          -9.949
REMARK INTER:                  -8.735
REMARK INTRA:                  -1.214
REMARK UNBOUND:                -1.271
REMARK SMILES COC(=O)C1=C(C)NC(C)=C(C(=O)OC(C)C)[C@@H]1c1cccc2nonc12
REMARK SMILES IDX 7 1 6 2 5 3 18 4 11 5 9 6 8 7 10 8 3 10 4 11 2 12 1 13 19 14
REMARK SMILES IDX 20 15 27 16 21 17 26 18 23 19 22 20 25 21 24 22 12 23 13 24
REMARK SMILES IDX 14 25 15 26 16 27 17 28
REMARK H PARENT 8 9
ROOT
ATOM      1  C   UNL     1     149.363 159.751 151.398  1.00  0.00     0.065 C 
ATOM      2  C   UNL     1     148.949 159.389 149.994  1.00  0.00     0.023 C 
ATOM      3  C   UNL     1     148.938 158.132 149.495  1.00  0.00     0.068 C 
ATOM      4  C   UNL     1     148.512 157.854 148.057  1.00  0.00     0.100 C 
ATOM      5  C   UNL     1     148.193 159.119 147.269  1.00  0.00     0.068 C 
ATOM      6  C   UNL     1     148.245 160.342 147.842  1.00  0.00     0.023 C 
ATOM      7  N   UNL     1     148.595 160.453 149.178  1.00  0.00    -0.362 N 
ATOM      8  C   UNL     1     147.995 161.639 147.118  1.00  0.00     0.065 C 
ATOM      9  H   UNL     1     148.576 161.380 149.596  1.00  0.00     0.166 HD
ENDROOT
BRANCH   3  10
ATOM     10  C   UNL     1     149.310 156.968 150.330  1.00  0.00     0.336 C 
ATOM     11  O   UNL     1     148.519 156.255 150.929  1.00  0.00    -0.246 OA
BRANCH  10  12
ATOM     12  O   UNL     1     150.661 156.822 150.324  1.00  0.00    -0.466 OA
ATOM     13  C   UNL     1     151.104 155.538 150.763  1.00  0.00     0.282 C 
ENDBRANCH  10  12
ENDBRANCH   3  10
BRANCH   4  14
ATOM     14  C   UNL     1     147.355 156.864 147.998  1.00  0.00    -0.004 A 
ATOM     15  C   UNL     1     147.506 155.593 147.379  1.00  0.00     0.007 A 
ATOM     16  C   UNL     1     146.050 157.080 148.510  1.00  0.00     0.139 A 
ATOM     17  C   UNL     1     146.471 154.626 147.282  1.00  0.00     0.003 A 
ATOM     18  N   UNL     1     145.546 158.151 149.138  1.00  0.00    -0.049 NA
ATOM     19  C   UNL     1     144.989 156.085 148.406  1.00  0.00     0.135 A 
ATOM     20  C   UNL     1     145.179 154.834 147.791  1.00  0.00     0.034 A 
ATOM     21  O   UNL     1     144.229 157.844 149.424  1.00  0.00    -0.243 OA
ATOM     22  N   UNL     1     143.884 156.582 148.974  1.00  0.00    -0.050 NA
ENDBRANCH   4  14
BRANCH   5  23
ATOM     23  C   UNL     1     147.861 158.894 145.847  1.00  0.00     0.337 C 
ATOM     24  O   UNL     1     146.752 159.103 145.379  1.00  0.00    -0.246 OA
BRANCH  23  25
ATOM     25  O   UNL     1     148.972 158.530 145.162  1.00  0.00    -0.460 OA
BRANCH  25  26
ATOM     26  C   UNL     1     149.836 159.600 144.741  1.00  0.00     0.170 C 
ATOM     27  C   UNL     1     151.071 158.960 144.120  1.00  0.00     0.052 C 
ATOM     28  C   UNL     1     149.107 160.473 143.726  1.00  0.00     0.052 C 
ENDBRANCH  25  26
ENDBRANCH  23  25
ENDBRANCH   5  23
TORSDOF 6
ENDMDL
MODEL 13
REMARK VINA RESULT:    -6.410      5.838      9.640
REMARK INTER + INTRA:          -9.929
REMARK INTER:                  -8.251
REMARK INTRA:                  -1.679
REMARK UNBOUND:                -1.271
REMARK SMILES COC(=O)C1=C(C)NC(C)=C(C(=O)OC(C)C)[C@@H]1c1cccc2nonc12
REMARK SMILES IDX 7 1 6 2 5 3 18 4 11 5 9 6 8 7 10 8 3 10 4 11 2 12 1 13 19 14
REMARK SMILES IDX 20 15 27 16 21 17 26 18 23 19 22 20 25 21 24 22 12 23 13 24
REMARK SMILES IDX 14 25 15 26 16 27 17 28
REMARK H PARENT 8 9
ROOT
ATOM      1  C   UNL     1     151.422 164.631 153.228  1.00  0.00     0.065 C 
ATOM      2  C   UNL     1     151.001 163.787 152.051  1.00  0.00     0.023 C 
ATOM      3  C   UNL     1     151.261 164.086 150.758  1.00  0.00     0.068 C 
ATOM      4  C   UNL     1     150.791 163.179 149.625  1.00  0.00     0.100 C 
ATOM      5  C   UNL     1     149.963 161.995 150.107  1.00  0.00     0.068 C 
ATOM      6  C   UNL     1     149.734 161.779 151.422  1.00  0.00     0.023 C 
ATOM      7  N   UNL     1     150.267 162.651 152.358  1.00  0.00    -0.362 N 
ATOM      8  C   UNL     1     148.885 160.663 151.973  1.00  0.00     0.065 C 
ATOM      9  H   UNL     1     150.123 162.435 153.341  1.00  0.00     0.166 HD
ENDROOT
BRANCH   3  10
ATOM     10  C   UNL     1     152.040 165.289 150.386  1.00  0.00     0.336 C 
ATOM     11  O   UNL     1     153.239 165.429 150.567  1.00  0.00    -0.246 OA
BRANCH  10  12
ATOM     12  O   UNL     1     151.212 166.203 149.818  1.00  0.00    -0.466 OA
ATOM     13  C   UNL     1     151.218 167.472 150.472  1.00  0.00     0.282 C 
ENDBRANCH  10  12
ENDBRANCH   3  10
BRANCH   4  14
ATOM     14  C   UNL     1     151.956 162.717 148.759  1.00  0.00    -0.004 A 
ATOM     15  C   UNL     1     152.088 163.154 147.412  1.00  0.00     0.007 A 
ATOM     16  C   UNL     1     152.987 161.830 149.158  1.00  0.00     0.139 A 
ATOM     17  C   UNL     1     153.142 162.759 146.546  1.00  0.00     0.003 A 
ATOM     18  N   UNL     1     153.178 161.216 150.334  1.00  0.00    -0.049 NA
ATOM     19  C   UNL     1     154.067 161.425 148.265  1.00  0.00     0.135 A 
ATOM     20  C   UNL     1     154.168 161.884 146.939  1.00  0.00     0.034 A 
ATOM     21  O   UNL     1     154.329 160.465 150.192  1.00  0.00    -0.243 OA
ATOM     22  N   UNL     1     154.873 160.587 148.926  1.00  0.00    -0.050 NA
ENDBRANCH   4  14
BRANCH   5  23
ATOM     23  C   UNL     1     149.416 161.144 149.031  1.00  0.00     0.337 C 
ATOM     24  O   UNL     1     148.551 161.522 148.255  1.00  0.00    -0.246 OA
BRANCH  23  25
ATOM     25  O   UNL     1     150.079 159.963 148.989  1.00  0.00    -0.460 OA
BRANCH  25  26
ATOM     26  C   UNL     1     149.928 159.193 147.783  1.00  0.00     0.170 C 
ATOM     27  C   UNL     1     151.175 159.431 146.941  1.00  0.00     0.052 C 
ATOM     28  C   UNL     1     149.784 157.718 148.137  1.00  0.00     0.052 C 
ENDBRANCH  25  26
ENDBRANCH  23  25
ENDBRANCH   5  23
TORSDOF 6
ENDMDL
MODEL 14
REMARK VINA RESULT:    -6.343      7.147     10.144
REMARK INTER + INTRA:          -9.840
REMARK INTER:                  -8.580
REMARK INTRA:                  -1.260
REMARK UNBOUND:                -1.271
REMARK SMILES COC(=O)C1=C(C)NC(C)=C(C(=O)OC(C)C)[C@@H]1c1cccc2nonc12
REMARK SMILES IDX 7 1 6 2 5 3 18 4 11 5 9 6 8 7 10 8 3 10 4 11 2 12 1 13 19 14
REMARK SMILES IDX 20 15 27 16 21 17 26 18 23 19 22 20 25 21 24 22 12 23 13 24
REMARK SMILES IDX 14 25 15 26 16 27 17 28
REMARK H PARENT 8 9
ROOT
ATOM      1  C   UNL     1     148.615 160.720 152.054  1.00  0.00     0.065 C 
ATOM      2  C   UNL     1     149.408 161.096 150.828  1.00  0.00     0.023 C 
ATOM      3  C   UNL     1     150.746 161.291 150.807  1.00  0.00     0.068 C 
ATOM      4  C   UNL     1     151.470 161.678 149.521  1.00  0.00     0.100 C 
ATOM      5  C   UNL     1     150.529 161.886 148.340  1.00  0.00     0.068 C 
ATOM      6  C   UNL     1     149.197 161.686 148.453  1.00  0.00     0.023 C 
ATOM      7  N   UNL     1     148.670 161.280 149.668  1.00  0.00    -0.362 N 
ATOM      8  C   UNL     1     148.198 161.919 147.349  1.00  0.00     0.065 C 
ATOM      9  H   UNL     1     147.672 161.087 149.710  1.00  0.00     0.166 HD
ENDROOT
BRANCH   3  10
ATOM     10  C   UNL     1     151.571 161.107 152.021  1.00  0.00     0.336 C 
ATOM     11  O   UNL     1     151.508 160.145 152.771  1.00  0.00    -0.246 OA
BRANCH  10  12
ATOM     12  O   UNL     1     152.402 162.172 152.167  1.00  0.00    -0.466 OA
ATOM     13  C   UNL     1     151.761 163.337 152.687  1.00  0.00     0.282 C 
ENDBRANCH  10  12
ENDBRANCH   3  10
BRANCH   4  14
ATOM     14  C   UNL     1     152.570 160.682 149.177  1.00  0.00    -0.004 A 
ATOM     15  C   UNL     1     152.264 159.327 148.869  1.00  0.00     0.007 A 
ATOM     16  C   UNL     1     153.960 160.959 149.138  1.00  0.00     0.139 A 
ATOM     17  C   UNL     1     153.237 158.345 148.547  1.00  0.00     0.003 A 
ATOM     18  N   UNL     1     154.609 162.106 149.381  1.00  0.00    -0.049 NA
ATOM     19  C   UNL     1     154.956 159.946 148.809  1.00  0.00     0.135 A 
ATOM     20  C   UNL     1     154.614 158.616 148.503  1.00  0.00     0.034 A 
ATOM     21  O   UNL     1     155.952 161.832 149.206  1.00  0.00    -0.243 OA
ATOM     22  N   UNL     1     156.168 160.510 148.860  1.00  0.00    -0.050 NA
ENDBRANCH   4  14
BRANCH   5  23
ATOM     23  C   UNL     1     151.186 162.347 147.100  1.00  0.00     0.337 C 
ATOM     24  O   UNL     1     151.172 161.707 146.059  1.00  0.00    -0.246 OA
BRANCH  23  25
ATOM     25  O   UNL     1     151.695 163.590 147.278  1.00  0.00    -0.460 OA
BRANCH  25  26
ATOM     26  C   UNL     1     150.755 164.613 147.650  1.00  0.00     0.170 C 
ATOM     27  C   UNL     1     151.418 165.458 148.731  1.00  0.00     0.052 C 
ATOM     28  C   UNL     1     150.416 165.461 146.429  1.00  0.00     0.052 C 
ENDBRANCH  25  26
ENDBRANCH  23  25
ENDBRANCH   5  23
TORSDOF 6
ENDMDL
MODEL 15
REMARK VINA RESULT:    -6.309      6.992     10.075
REMARK INTER + INTRA:          -9.794
REMARK INTER:                  -8.412
REMARK INTRA:                  -1.382
REMARK UNBOUND:                -1.271
REMARK SMILES COC(=O)C1=C(C)NC(C)=C(C(=O)OC(C)C)[C@@H]1c1cccc2nonc12
REMARK SMILES IDX 7 1 6 2 5 3 18 4 11 5 9 6 8 7 10 8 3 10 4 11 2 12 1 13 19 14
REMARK SMILES IDX 20 15 27 16 21 17 26 18 23 19 22 20 25 21 24 22 12 23 13 24
REMARK SMILES IDX 14 25 15 26 16 27 17 28
REMARK H PARENT 8 9
ROOT
ATOM      1  C   UNL     1     150.244 161.428 145.117  1.00  0.00     0.065 C 
ATOM      2  C   UNL     1     151.238 161.531 146.246  1.00  0.00     0.023 C 
ATOM      3  C   UNL     1     151.383 162.611 147.048  1.00  0.00     0.068 C 
ATOM      4  C   UNL     1     152.422 162.635 148.165  1.00  0.00     0.100 C 
ATOM      5  C   UNL     1     153.287 161.381 148.207  1.00  0.00     0.068 C 
ATOM      6  C   UNL     1     153.087 160.353 147.354  1.00  0.00     0.023 C 
ATOM      7  N   UNL     1     152.068 160.434 146.418  1.00  0.00    -0.362 N 
ATOM      8  C   UNL     1     153.930 159.105 147.300  1.00  0.00     0.065 C 
ATOM      9  H   UNL     1     151.907 159.624 145.824  1.00  0.00     0.166 HD
ENDROOT
BRANCH   3  10
ATOM     10  C   UNL     1     150.519 163.803 146.898  1.00  0.00     0.336 C 
ATOM     11  O   UNL     1     149.317 163.827 147.107  1.00  0.00    -0.246 OA
BRANCH  10  12
ATOM     12  O   UNL     1     151.275 164.858 146.493  1.00  0.00    -0.466 OA
ATOM     13  C   UNL     1     151.048 166.051 147.244  1.00  0.00     0.282 C 
ENDBRANCH  10  12
ENDBRANCH   3  10
BRANCH   4  14
ATOM     14  C   UNL     1     151.780 162.904 149.520  1.00  0.00    -0.004 A 
ATOM     15  C   UNL     1     152.132 164.051 150.284  1.00  0.00     0.007 A 
ATOM     16  C   UNL     1     150.818 162.084 150.161  1.00  0.00     0.139 A 
ATOM     17  C   UNL     1     151.581 164.361 151.555  1.00  0.00     0.003 A 
ATOM     18  N   UNL     1     150.267 160.933 149.751  1.00  0.00    -0.049 NA
ATOM     19  C   UNL     1     150.255 162.406 151.468  1.00  0.00     0.135 A 
ATOM     20  C   UNL     1     150.624 163.554 152.192  1.00  0.00     0.034 A 
ATOM     21  O   UNL     1     149.392 160.549 150.749  1.00  0.00    -0.243 OA
ATOM     22  N   UNL     1     149.386 161.446 151.803  1.00  0.00    -0.050 NA
ENDBRANCH   4  14
BRANCH   5  23
ATOM     23  C   UNL     1     154.363 161.407 149.220  1.00  0.00     0.337 C 
ATOM     24  O   UNL     1     154.489 160.549 150.081  1.00  0.00    -0.246 OA
BRANCH  23  25
ATOM     25  O   UNL     1     155.205 162.441 148.979  1.00  0.00    -0.460 OA
BRANCH  25  26
ATOM     26  C   UNL     1     156.526 162.091 148.531  1.00  0.00     0.170 C 
ATOM     27  C   UNL     1     156.478 162.019 147.010  1.00  0.00     0.052 C 
ATOM     28  C   UNL     1     157.517 163.152 148.994  1.00  0.00     0.052 C 
ENDBRANCH  25  26
ENDBRANCH  23  25
ENDBRANCH   5  23
TORSDOF 6
ENDMDL
MODEL 16
REMARK VINA RESULT:    -6.289     10.826     14.172
REMARK INTER + INTRA:          -9.766
REMARK INTER:                  -8.259
REMARK INTRA:                  -1.506
REMARK UNBOUND:                -1.271
REMARK SMILES COC(=O)C1=C(C)NC(C)=C(C(=O)OC(C)C)[C@@H]1c1cccc2nonc12
REMARK SMILES IDX 7 1 6 2 5 3 18 4 11 5 9 6 8 7 10 8 3 10 4 11 2 12 1 13 19 14
REMARK SMILES IDX 20 15 27 16 21 17 26 18 23 19 22 20 25 21 24 22 12 23 13 24
REMARK SMILES IDX 14 25 15 26 16 27 17 28
REMARK H PARENT 8 9
ROOT
ATOM      1  C   UNL     1     150.202 160.518 148.844  1.00  0.00     0.065 C 
ATOM      2  C   UNL     1     150.426 159.152 149.441  1.00  0.00     0.023 C 
ATOM      3  C   UNL     1     149.520 158.478 150.185  1.00  0.00     0.068 C 
ATOM      4  C   UNL     1     149.833 157.100 150.759  1.00  0.00     0.100 C 
ATOM      5  C   UNL     1     151.255 156.637 150.468  1.00  0.00     0.068 C 
ATOM      6  C   UNL     1     152.106 157.382 149.728  1.00  0.00     0.023 C 
ATOM      7  N   UNL     1     151.678 158.597 149.217  1.00  0.00    -0.362 N 
ATOM      8  C   UNL     1     153.539 157.018 149.441  1.00  0.00     0.065 C 
ATOM      9  H   UNL     1     152.321 159.111 148.620  1.00  0.00     0.166 HD
ENDROOT
BRANCH   3  10
ATOM     10  C   UNL     1     148.174 159.034 150.450  1.00  0.00     0.336 C 
ATOM     11  O   UNL     1     147.846 159.616 151.472  1.00  0.00    -0.246 OA
BRANCH  10  12
ATOM     12  O   UNL     1     147.370 158.794 149.381  1.00  0.00    -0.466 OA
ATOM     13  C   UNL     1     146.068 158.326 149.734  1.00  0.00     0.282 C 
ENDBRANCH  10  12
ENDBRANCH   3  10
BRANCH   4  14
ATOM     14  C   UNL     1     148.815 156.061 150.305  1.00  0.00    -0.004 A 
ATOM     15  C   UNL     1     147.958 155.416 151.240  1.00  0.00     0.007 A 
ATOM     16  C   UNL     1     148.615 155.620 148.973  1.00  0.00     0.139 A 
ATOM     17  C   UNL     1     146.993 154.435 150.890  1.00  0.00     0.003 A 
ATOM     18  N   UNL     1     149.240 155.992 147.847  1.00  0.00    -0.049 NA
ATOM     19  C   UNL     1     147.623 154.611 148.618  1.00  0.00     0.135 A 
ATOM     20  C   UNL     1     146.789 153.999 149.570  1.00  0.00     0.034 A 
ATOM     21  O   UNL     1     148.665 155.257 146.828  1.00  0.00    -0.243 OA
ATOM     22  N   UNL     1     147.678 154.408 147.297  1.00  0.00    -0.050 NA
ENDBRANCH   4  14
BRANCH   5  23
ATOM     23  C   UNL     1     151.622 155.344 151.084  1.00  0.00     0.337 C 
ATOM     24  O   UNL     1     151.729 154.308 150.446  1.00  0.00    -0.246 OA
BRANCH  23  25
ATOM     25  O   UNL     1     151.906 155.518 152.397  1.00  0.00    -0.460 OA
BRANCH  25  26
ATOM     26  C   UNL     1     153.287 155.373 152.772  1.00  0.00     0.170 C 
ATOM     27  C   UNL     1     153.814 156.766 153.089  1.00  0.00     0.052 C 
ATOM     28  C   UNL     1     153.390 154.462 153.990  1.00  0.00     0.052 C 
ENDBRANCH  25  26
ENDBRANCH  23  25
ENDBRANCH   5  23
TORSDOF 6
ENDMDL
MODEL 17
REMARK VINA RESULT:    -6.272      9.610     12.413
REMARK INTER + INTRA:          -9.743
REMARK INTER:                  -7.892
REMARK INTRA:                  -1.852
REMARK UNBOUND:                -1.271
REMARK SMILES COC(=O)C1=C(C)NC(C)=C(C(=O)OC(C)C)[C@@H]1c1cccc2nonc12
REMARK SMILES IDX 7 1 6 2 5 3 18 4 11 5 9 6 8 7 10 8 3 10 4 11 2 12 1 13 19 14
REMARK SMILES IDX 20 15 27 16 21 17 26 18 23 19 22 20 25 21 24 22 12 23 13 24
REMARK SMILES IDX 14 25 15 26 16 27 17 28
REMARK H PARENT 8 9
ROOT
ATOM      1  C   UNL     1     145.665 158.220 149.568  1.00  0.00     0.065 C 
ATOM      2  C   UNL     1     147.100 157.810 149.781  1.00  0.00     0.023 C 
ATOM      3  C   UNL     1     148.174 158.514 149.357  1.00  0.00     0.068 C 
ATOM      4  C   UNL     1     149.595 158.021 149.609  1.00  0.00     0.100 C 
ATOM      5  C   UNL     1     149.647 156.660 150.293  1.00  0.00     0.068 C 
ATOM      6  C   UNL     1     148.521 156.013 150.668  1.00  0.00     0.023 C 
ATOM      7  N   UNL     1     147.288 156.598 150.430  1.00  0.00    -0.362 N 
ATOM      8  C   UNL     1     148.488 154.646 151.301  1.00  0.00     0.065 C 
ATOM      9  H   UNL     1     146.461 156.113 150.770  1.00  0.00     0.166 HD
ENDROOT
BRANCH   3  10
ATOM     10  C   UNL     1     148.018 159.810 148.660  1.00  0.00     0.336 C 
ATOM     11  O   UNL     1     147.786 160.877 149.207  1.00  0.00    -0.246 OA
BRANCH  10  12
ATOM     12  O   UNL     1     148.173 159.623 147.323  1.00  0.00    -0.466 OA
ATOM     13  C   UNL     1     149.258 160.359 146.759  1.00  0.00     0.282 C 
ENDBRANCH  10  12
ENDBRANCH   3  10
BRANCH   4  14
ATOM     14  C   UNL     1     150.417 159.050 150.373  1.00  0.00    -0.004 A 
ATOM     15  C   UNL     1     150.013 159.506 151.658  1.00  0.00     0.007 A 
ATOM     16  C   UNL     1     151.614 159.662 149.919  1.00  0.00     0.139 A 
ATOM     17  C   UNL     1     150.725 160.468 152.423  1.00  0.00     0.003 A 
ATOM     18  N   UNL     1     152.277 159.490 148.767  1.00  0.00    -0.049 NA
ATOM     19  C   UNL     1     152.341 160.650 150.708  1.00  0.00     0.135 A 
ATOM     20  C   UNL     1     151.912 161.072 151.979  1.00  0.00     0.034 A 
ATOM     21  O   UNL     1     153.376 160.325 148.829  1.00  0.00    -0.243 OA
ATOM     22  N   UNL     1     153.416 161.040 150.013  1.00  0.00    -0.050 NA
ENDBRANCH   4  14
BRANCH   5  23
ATOM     23  C   UNL     1     151.006 156.110 150.473  1.00  0.00     0.337 C 
ATOM     24  O   UNL     1     151.729 155.799 149.538  1.00  0.00    -0.246 OA
BRANCH  23  25
ATOM     25  O   UNL     1     151.337 156.106 151.786  1.00  0.00    -0.460 OA
BRANCH  25  26
ATOM     26  C   UNL     1     152.743 156.071 152.087  1.00  0.00     0.170 C 
ATOM     27  C   UNL     1     153.146 157.479 152.508  1.00  0.00     0.052 C 
ATOM     28  C   UNL     1     152.998 155.074 153.211  1.00  0.00     0.052 C 
ENDBRANCH  25  26
ENDBRANCH  23  25
ENDBRANCH   5  23
TORSDOF 6
ENDMDL
MODEL 18
REMARK VINA RESULT:    -6.245      7.794     11.161
REMARK INTER + INTRA:          -9.706
REMARK INTER:                  -8.001
REMARK INTRA:                  -1.705
REMARK UNBOUND:                -1.271
REMARK SMILES COC(=O)C1=C(C)NC(C)=C(C(=O)OC(C)C)[C@@H]1c1cccc2nonc12
REMARK SMILES IDX 7 1 6 2 5 3 18 4 11 5 9 6 8 7 10 8 3 10 4 11 2 12 1 13 19 14
REMARK SMILES IDX 20 15 27 16 21 17 26 18 23 19 22 20 25 21 24 22 12 23 13 24
REMARK SMILES IDX 14 25 15 26 16 27 17 28
REMARK H PARENT 8 9
ROOT
ATOM      1  C   UNL     1     156.207 159.288 149.780  1.00  0.00     0.065 C 
ATOM      2  C   UNL     1     154.989 159.948 149.183  1.00  0.00     0.023 C 
ATOM      3  C   UNL     1     153.731 159.820 149.664  1.00  0.00     0.068 C 
ATOM      4  C   UNL     1     152.552 160.517 148.992  1.00  0.00     0.100 C 
ATOM      5  C   UNL     1     152.941 161.272 147.727  1.00  0.00     0.068 C 
ATOM      6  C   UNL     1     154.224 161.335 147.306  1.00  0.00     0.023 C 
ATOM      7  N   UNL     1     155.213 160.701 148.040  1.00  0.00    -0.362 N 
ATOM      8  C   UNL     1     154.680 162.016 146.042  1.00  0.00     0.065 C 
ATOM      9  H   UNL     1     156.175 160.809 147.729  1.00  0.00     0.166 HD
ENDROOT
BRANCH   3  10
ATOM     10  C   UNL     1     153.448 159.025 150.879  1.00  0.00     0.336 C 
ATOM     11  O   UNL     1     153.631 159.407 152.024  1.00  0.00    -0.246 OA
BRANCH  10  12
ATOM     12  O   UNL     1     152.955 157.811 150.518  1.00  0.00    -0.466 OA
ATOM     13  C   UNL     1     151.847 157.381 151.308  1.00  0.00     0.282 C 
ENDBRANCH  10  12
ENDBRANCH   3  10
BRANCH   4  14
ATOM     14  C   UNL     1     151.810 161.424 149.966  1.00  0.00    -0.004 A 
ATOM     15  C   UNL     1     152.425 162.592 150.495  1.00  0.00     0.007 A 
ATOM     16  C   UNL     1     150.494 161.221 150.452  1.00  0.00     0.139 A 
ATOM     17  C   UNL     1     151.797 163.477 151.411  1.00  0.00     0.003 A 
ATOM     18  N   UNL     1     149.628 160.234 150.186  1.00  0.00    -0.049 NA
ATOM     19  C   UNL     1     149.854 162.132 151.394  1.00  0.00     0.135 A 
ATOM     20  C   UNL     1     150.492 163.282 151.892  1.00  0.00     0.034 A 
ATOM     21  O   UNL     1     148.491 160.512 150.920  1.00  0.00    -0.243 OA
ATOM     22  N   UNL     1     148.627 161.671 151.664  1.00  0.00    -0.050 NA
ENDBRANCH   4  14
BRANCH   5  23
ATOM     23  C   UNL     1     151.810 161.887 147.001  1.00  0.00     0.337 C 
ATOM     24  O   UNL     1     151.624 163.093 146.954  1.00  0.00    -0.246 OA
BRANCH  23  25
ATOM     25  O   UNL     1     151.107 160.934 146.344  1.00  0.00    -0.460 OA
BRANCH  25  26
ATOM     26  C   UNL     1     151.343 160.834 144.929  1.00  0.00     0.170 C 
ATOM     27  C   UNL     1     151.989 159.477 144.677  1.00  0.00     0.052 C 
ATOM     28  C   UNL     1     150.020 160.953 144.182  1.00  0.00     0.052 C 
ENDBRANCH  25  26
ENDBRANCH  23  25
ENDBRANCH   5  23
TORSDOF 6
ENDMDL
MODEL 19
REMARK VINA RESULT:    -6.238      6.150      8.550
REMARK INTER + INTRA:          -9.697
REMARK INTER:                  -8.109
REMARK INTRA:                  -1.588
REMARK UNBOUND:                -1.271
REMARK SMILES COC(=O)C1=C(C)NC(C)=C(C(=O)OC(C)C)[C@@H]1c1cccc2nonc12
REMARK SMILES IDX 7 1 6 2 5 3 18 4 11 5 9 6 8 7 10 8 3 10 4 11 2 12 1 13 19 14
REMARK SMILES IDX 20 15 27 16 21 17 26 18 23 19 22 20 25 21 24 22 12 23 13 24
REMARK SMILES IDX 14 25 15 26 16 27 17 28
REMARK H PARENT 8 9
ROOT
ATOM      1  C   UNL     1     154.070 158.804 148.475  1.00  0.00     0.065 C 
ATOM      2  C   UNL     1     153.364 159.960 149.136  1.00  0.00     0.023 C 
ATOM      3  C   UNL     1     153.305 161.214 148.634  1.00  0.00     0.068 C 
ATOM      4  C   UNL     1     152.574 162.331 149.374  1.00  0.00     0.100 C 
ATOM      5  C   UNL     1     152.016 161.893 150.723  1.00  0.00     0.068 C 
ATOM      6  C   UNL     1     152.135 160.619 151.158  1.00  0.00     0.023 C 
ATOM      7  N   UNL     1     152.777 159.684 150.362  1.00  0.00    -0.362 N 
ATOM      8  C   UNL     1     151.657 160.122 152.498  1.00  0.00     0.065 C 
ATOM      9  H   UNL     1     152.805 158.722 150.692  1.00  0.00     0.166 HD
ENDROOT
BRANCH   3  10
ATOM     10  C   UNL     1     153.919 161.553 147.330  1.00  0.00     0.336 C 
ATOM     11  O   UNL     1     153.400 161.362 146.242  1.00  0.00    -0.246 OA
BRANCH  10  12
ATOM     12  O   UNL     1     155.144 162.103 147.539  1.00  0.00    -0.466 OA
ATOM     13  C   UNL     1     156.197 161.449 146.832  1.00  0.00     0.282 C 
ENDBRANCH  10  12
ENDBRANCH   3  10
BRANCH   4  14
ATOM     14  C   UNL     1     151.488 162.958 148.509  1.00  0.00    -0.004 A 
ATOM     15  C   UNL     1     151.617 164.285 148.015  1.00  0.00     0.007 A 
ATOM     16  C   UNL     1     150.273 162.338 148.122  1.00  0.00     0.139 A 
ATOM     17  C   UNL     1     150.644 164.934 147.211  1.00  0.00     0.003 A 
ATOM     18  N   UNL     1     149.810 161.113 148.408  1.00  0.00    -0.049 NA
ATOM     19  C   UNL     1     149.275 163.009 147.297  1.00  0.00     0.135 A 
ATOM     20  C   UNL     1     149.441 164.322 146.822  1.00  0.00     0.034 A 
ATOM     21  O   UNL     1     148.580 161.013 147.787  1.00  0.00    -0.243 OA
ATOM     22  N   UNL     1     148.247 162.173 147.110  1.00  0.00    -0.050 NA
ENDBRANCH   4  14
BRANCH   5  23
ATOM     23  C   UNL     1     151.378 162.970 151.507  1.00  0.00     0.337 C 
ATOM     24  O   UNL     1     150.203 162.949 151.837  1.00  0.00    -0.246 OA
BRANCH  23  25
ATOM     25  O   UNL     1     152.303 163.893 151.867  1.00  0.00    -0.460 OA
BRANCH  25  26
ATOM     26  C   UNL     1     151.872 165.265 151.843  1.00  0.00     0.170 C 
ATOM     27  C   UNL     1     151.923 165.775 153.278  1.00  0.00     0.052 C 
ATOM     28  C   UNL     1     152.800 166.075 150.946  1.00  0.00     0.052 C 
ENDBRANCH  25  26
ENDBRANCH  23  25
ENDBRANCH   5  23
TORSDOF 6
ENDMDL
MODEL 20
REMARK VINA RESULT:    -6.189     10.909     14.751
REMARK INTER + INTRA:          -9.631
REMARK INTER:                  -7.922
REMARK INTRA:                  -1.710
REMARK UNBOUND:                -1.271
REMARK SMILES COC(=O)C1=C(C)NC(C)=C(C(=O)OC(C)C)[C@@H]1c1cccc2nonc12
REMARK SMILES IDX 7 1 6 2 5 3 18 4 11 5 9 6 8 7 10 8 3 10 4 11 2 12 1 13 19 14
REMARK SMILES IDX 20 15 27 16 21 17 26 18 23 19 22 20 25 21 24 22 12 23 13 24
REMARK SMILES IDX 14 25 15 26 16 27 17 28
REMARK H PARENT 8 9
ROOT
ATOM      1  C   UNL     1     147.894 161.274 147.926  1.00  0.00     0.065 C 
ATOM      2  C   UNL     1     148.217 159.825 147.661  1.00  0.00     0.023 C 
ATOM      3  C   UNL     1     148.488 158.910 148.619  1.00  0.00     0.068 C 
ATOM      4  C   UNL     1     148.814 157.462 148.263  1.00  0.00     0.100 C 
ATOM      5  C   UNL     1     148.871 157.211 146.761  1.00  0.00     0.068 C 
ATOM      6  C   UNL     1     148.602 158.190 145.869  1.00  0.00     0.023 C 
ATOM      7  N   UNL     1     148.264 159.453 146.326  1.00  0.00    -0.362 N 
ATOM      8  C   UNL     1     148.688 158.034 144.373  1.00  0.00     0.065 C 
ATOM      9  H   UNL     1     148.017 160.156 145.633  1.00  0.00     0.166 HD
ENDROOT
BRANCH   3  10
ATOM     10  C   UNL     1     148.450 159.263 150.056  1.00  0.00     0.336 C 
ATOM     11  O   UNL     1     147.433 159.419 150.712  1.00  0.00    -0.246 OA
BRANCH  10  12
ATOM     12  O   UNL     1     149.721 159.387 150.522  1.00  0.00    -0.466 OA
ATOM     13  C   UNL     1     150.098 160.732 150.815  1.00  0.00     0.282 C 
ENDBRANCH  10  12
ENDBRANCH   3  10
BRANCH   4  14
ATOM     14  C   UNL     1     147.860 156.490 148.946  1.00  0.00    -0.004 A 
ATOM     15  C   UNL     1     148.337 155.519 149.869  1.00  0.00     0.007 A 
ATOM     16  C   UNL     1     146.457 156.424 148.746  1.00  0.00     0.139 A 
ATOM     17  C   UNL     1     147.507 154.579 150.536  1.00  0.00     0.003 A 
ATOM     18  N   UNL     1     145.672 157.163 147.951  1.00  0.00    -0.049 NA
ATOM     19  C   UNL     1     145.610 155.456 149.432  1.00  0.00     0.135 A 
ATOM     20  C   UNL     1     146.117 154.513 150.344  1.00  0.00     0.034 A 
ATOM     21  O   UNL     1     144.387 156.689 148.131  1.00  0.00    -0.243 OA
ATOM     22  N   UNL     1     144.346 155.641 149.034  1.00  0.00    -0.050 NA
ENDBRANCH   4  14
BRANCH   5  23
ATOM     23  C   UNL     1     149.270 155.841 146.379  1.00  0.00     0.337 C 
ATOM     24  O   UNL     1     148.482 155.012 145.948  1.00  0.00    -0.246 OA
BRANCH  23  25
ATOM     25  O   UNL     1     150.613 155.701 146.486  1.00  0.00    -0.460 OA
BRANCH  25  26
ATOM     26  C   UNL     1     151.074 154.609 147.302  1.00  0.00     0.170 C 
ATOM     27  C   UNL     1     151.987 153.755 146.432  1.00  0.00     0.052 C 
ATOM     28  C   UNL     1     151.828 155.158 148.507  1.00  0.00     0.052 C 
ENDBRANCH  25  26
ENDBRANCH  23  25
ENDBRANCH   5  23
TORSDOF 6
ENDMDL
