MODEL 1
REMARK VINA RESULT:    -8.289      0.000      0.000
REMARK INTER + INTRA:          -9.935
REMARK INTER:                  -9.743
REMARK INTRA:                  -0.192
REMARK UNBOUND:                -0.192
REMARK SMILES CN1C(N)=N[C@](C)(c2cc(NC(=O)c3ccc(F)cn3)ccc2F)CS1(=O)=O
REMARK SMILES IDX 8 1 9 2 10 3 21 4 22 5 23 6 24 7 6 8 25 9 5 10 26 11 3 12
REMARK SMILES IDX 27 13 2 14 28 15 4 16 7 17 1 18 11 21 12 22 13 23 14 25
REMARK SMILES IDX 20 26 15 27 19 28 16 29 17 30 18 31
REMARK H PARENT 4 19 4 20 11 24
ROOT
ATOM      1  C   UNL     1      23.982  12.560  20.765  1.00  0.00     0.018 A 
ATOM      2  C   UNL     1      23.471  12.311  22.038  1.00  0.00     0.035 A 
ATOM      3  C   UNL     1      22.648  11.240  22.304  1.00  0.00     0.042 A 
ATOM      4  C   UNL     1      22.276  10.369  21.287  1.00  0.00     0.029 A 
ATOM      5  C   UNL     1      22.777  10.600  20.018  1.00  0.00     0.042 A 
ATOM      6  C   UNL     1      23.627  11.660  19.773  1.00  0.00     0.129 A 
ATOM      7  F   UNL     1      24.128  11.847  18.525  1.00  0.00    -0.207 F 
ENDROOT
BRANCH   1   8
ATOM      8  C   UNL     1      24.892  13.751  20.504  1.00  0.00     0.105 C 
ATOM      9  C   UNL     1      26.224  13.412  19.872  1.00  0.00     0.195 C 
ATOM     10  N   UNL     1      25.096  14.559  21.705  1.00  0.00    -0.240 NA
ATOM     11  S   UNL     1      27.194  12.399  20.960  1.00  0.00     0.239 S 
ATOM     12  C   UNL     1      25.967  14.228  22.609  1.00  0.00     0.205 C 
ATOM     13  O   UNL     1      28.586  12.664  20.640  1.00  0.00    -0.206 OA
ATOM     14  N   UNL     1      26.867  13.148  22.475  1.00  0.00    -0.243 N 
ATOM     15  O   UNL     1      26.637  11.090  21.098  1.00  0.00    -0.206 OA
ATOM     16  N   UNL     1      26.106  14.926  23.778  1.00  0.00    -0.369 N 
ATOM     17  C   UNL     1      24.179  14.719  19.556  1.00  0.00     0.044 C 
ATOM     18  C   UNL     1      27.765  12.709  23.561  1.00  0.00     0.167 C 
ATOM     19  H   UNL     1      25.523  15.697  23.964  1.00  0.00     0.159 HD
ATOM     20  H   UNL     1      26.790  14.657  24.434  1.00  0.00     0.159 HD
ENDBRANCH   1   8
BRANCH   3  21
ATOM     21  N   UNL     1      22.201  11.104  23.624  1.00  0.00    -0.321 N 
ATOM     22  C   UNL     1      22.927  11.243  24.794  1.00  0.00     0.274 C 
ATOM     23  O   UNL     1      24.141  11.387  24.856  1.00  0.00    -0.267 OA
ATOM     24  H   UNL     1      21.248  10.882  23.734  1.00  0.00     0.170 HD
BRANCH  22  25
ATOM     25  C   UNL     1      22.125  11.248  26.041  1.00  0.00     0.128 A 
ATOM     26  N   UNL     1      22.638  11.924  27.074  1.00  0.00    -0.248 NA
ATOM     27  C   UNL     1      20.911  10.584  26.084  1.00  0.00     0.037 A 
ATOM     28  C   UNL     1      21.931  11.939  28.216  1.00  0.00     0.151 A 
ATOM     29  C   UNL     1      20.203  10.623  27.273  1.00  0.00     0.043 A 
ATOM     30  C   UNL     1      20.718  11.304  28.358  1.00  0.00     0.141 A 
ATOM     31  F   UNL     1      20.063  11.377  29.529  1.00  0.00    -0.205 F 
ENDBRANCH  22  25
ENDBRANCH   3  21
TORSDOF 3
ENDMDL
MODEL 2
REMARK VINA RESULT:    -8.011      1.846      2.332
REMARK INTER + INTRA:          -9.608
REMARK INTER:                  -9.308
REMARK INTRA:                  -0.300
REMARK UNBOUND:                -0.192
REMARK SMILES CN1C(N)=N[C@](C)(c2cc(NC(=O)c3ccc(F)cn3)ccc2F)CS1(=O)=O
REMARK SMILES IDX 8 1 9 2 10 3 21 4 22 5 23 6 24 7 6 8 25 9 5 10 26 11 3 12
REMARK SMILES IDX 27 13 2 14 28 15 4 16 7 17 1 18 11 21 12 22 13 23 14 25
REMARK SMILES IDX 20 26 15 27 19 28 16 29 17 30 18 31
REMARK H PARENT 4 19 4 20 11 24
ROOT
ATOM      1  C   UNL     1      25.395  13.395  20.758  1.00  0.00     0.018 A 
ATOM      2  C   UNL     1      24.797  12.813  21.874  1.00  0.00     0.035 A 
ATOM      3  C   UNL     1      23.473  12.436  21.887  1.00  0.00     0.042 A 
ATOM      4  C   UNL     1      22.670  12.648  20.774  1.00  0.00     0.029 A 
ATOM      5  C   UNL     1      23.248  13.222  19.655  1.00  0.00     0.042 A 
ATOM      6  C   UNL     1      24.586  13.566  19.645  1.00  0.00     0.129 A 
ATOM      7  F   UNL     1      25.136  14.100  18.525  1.00  0.00    -0.207 F 
ENDROOT
BRANCH   1   8
ATOM      8  C   UNL     1      26.862  13.798  20.773  1.00  0.00     0.105 C 
ATOM      9  C   UNL     1      27.635  13.449  19.521  1.00  0.00     0.195 C 
ATOM     10  N   UNL     1      27.559  13.286  21.952  1.00  0.00    -0.240 NA
ATOM     11  S   UNL     1      27.706  11.690  19.297  1.00  0.00     0.239 S 
ATOM     12  C   UNL     1      28.004  12.069  22.006  1.00  0.00     0.205 C 
ATOM     13  O   UNL     1      28.924  11.416  18.556  1.00  0.00    -0.206 OA
ATOM     14  N   UNL     1      27.968  11.170  20.917  1.00  0.00    -0.243 N 
ATOM     15  O   UNL     1      26.425  11.148  18.966  1.00  0.00    -0.206 OA
ATOM     16  N   UNL     1      28.579  11.551  23.135  1.00  0.00    -0.369 N 
ATOM     17  C   UNL     1      26.956  15.316  20.951  1.00  0.00     0.044 C 
ATOM     18  C   UNL     1      28.363   9.752  21.031  1.00  0.00     0.167 C 
ATOM     19  H   UNL     1      28.650  12.101  23.949  1.00  0.00     0.159 HD
ATOM     20  H   UNL     1      28.922  10.628  23.134  1.00  0.00     0.159 HD
ENDBRANCH   1   8
BRANCH   3  21
ATOM     21  N   UNL     1      22.995  11.864  23.074  1.00  0.00    -0.321 N 
ATOM     22  C   UNL     1      22.465  12.503  24.180  1.00  0.00     0.274 C 
ATOM     23  O   UNL     1      22.447  13.715  24.352  1.00  0.00    -0.267 OA
ATOM     24  H   UNL     1      23.043  10.882  23.127  1.00  0.00     0.170 HD
BRANCH  22  25
ATOM     25  C   UNL     1      21.851  11.611  25.193  1.00  0.00     0.128 A 
ATOM     26  N   UNL     1      21.378  12.202  26.295  1.00  0.00    -0.248 NA
ATOM     27  C   UNL     1      21.784  10.248  24.964  1.00  0.00     0.037 A 
ATOM     28  C   UNL     1      20.821  11.414  27.229  1.00  0.00     0.151 A 
ATOM     29  C   UNL     1      21.199   9.462  25.941  1.00  0.00     0.043 A 
ATOM     30  C   UNL     1      20.714  10.048  27.095  1.00  0.00     0.141 A 
ATOM     31  F   UNL     1      20.130   9.327  28.067  1.00  0.00    -0.205 F 
ENDBRANCH  22  25
ENDBRANCH   3  21
TORSDOF 3
ENDMDL
MODEL 3
REMARK VINA RESULT:    -7.945      7.371     10.704
REMARK INTER + INTRA:          -9.530
REMARK INTER:                  -9.287
REMARK INTRA:                  -0.243
REMARK UNBOUND:                -0.192
REMARK SMILES CN1C(N)=N[C@](C)(c2cc(NC(=O)c3ccc(F)cn3)ccc2F)CS1(=O)=O
REMARK SMILES IDX 8 1 9 2 10 3 21 4 22 5 23 6 24 7 6 8 25 9 5 10 26 11 3 12
REMARK SMILES IDX 27 13 2 14 28 15 4 16 7 17 1 18 11 21 12 22 13 23 14 25
REMARK SMILES IDX 20 26 15 27 19 28 16 29 17 30 18 31
REMARK H PARENT 4 19 4 20 11 24
ROOT
ATOM      1  C   UNL     1      22.618   8.804  16.733  1.00  0.00     0.018 A 
ATOM      2  C   UNL     1      23.837   8.289  16.295  1.00  0.00     0.035 A 
ATOM      3  C   UNL     1      25.010   9.005  16.372  1.00  0.00     0.042 A 
ATOM      4  C   UNL     1      25.012  10.299  16.878  1.00  0.00     0.029 A 
ATOM      5  C   UNL     1      23.811  10.826  17.321  1.00  0.00     0.042 A 
ATOM      6  C   UNL     1      22.648  10.083  17.267  1.00  0.00     0.129 A 
ATOM      7  F   UNL     1      21.488  10.613  17.735  1.00  0.00    -0.207 F 
ENDROOT
BRANCH   1   8
ATOM      8  C   UNL     1      21.340   7.986  16.638  1.00  0.00     0.105 C 
ATOM      9  C   UNL     1      20.505   7.953  17.898  1.00  0.00     0.195 C 
ATOM     10  N   UNL     1      21.593   6.625  16.167  1.00  0.00    -0.240 NA
ATOM     11  S   UNL     1      21.390   7.159  19.216  1.00  0.00     0.239 S 
ATOM     12  C   UNL     1      22.003   5.692  16.969  1.00  0.00     0.205 C 
ATOM     13  O   UNL     1      20.390   6.583  20.098  1.00  0.00    -0.206 OA
ATOM     14  N   UNL     1      22.130   5.857  18.367  1.00  0.00    -0.243 N 
ATOM     15  O   UNL     1      22.495   7.949  19.661  1.00  0.00    -0.206 OA
ATOM     16  N   UNL     1      22.328   4.438  16.526  1.00  0.00    -0.369 N 
ATOM     17  C   UNL     1      20.459   8.573  15.531  1.00  0.00     0.044 C 
ATOM     18  C   UNL     1      22.716   4.828  19.249  1.00  0.00     0.167 C 
ATOM     19  H   UNL     1      22.271   4.225  15.567  1.00  0.00     0.159 HD
ATOM     20  H   UNL     1      22.619   3.749  17.167  1.00  0.00     0.159 HD
ENDBRANCH   1   8
BRANCH   3  21
ATOM     21  N   UNL     1      26.165   8.372  15.895  1.00  0.00    -0.321 N 
ATOM     22  C   UNL     1      27.371   8.185  16.546  1.00  0.00     0.274 C 
ATOM     23  O   UNL     1      27.669   8.671  17.629  1.00  0.00    -0.267 OA
ATOM     24  H   UNL     1      26.111   8.014  14.979  1.00  0.00     0.170 HD
BRANCH  22  25
ATOM     25  C   UNL     1      28.332   7.291  15.855  1.00  0.00     0.128 A 
ATOM     26  N   UNL     1      29.552   7.790  15.635  1.00  0.00    -0.248 NA
ATOM     27  C   UNL     1      27.945   6.014  15.487  1.00  0.00     0.037 A 
ATOM     28  C   UNL     1      30.439   7.000  15.007  1.00  0.00     0.151 A 
ATOM     29  C   UNL     1      28.882   5.222  14.847  1.00  0.00     0.043 A 
ATOM     30  C   UNL     1      30.147   5.719  14.597  1.00  0.00     0.141 A 
ATOM     31  F   UNL     1      31.092   4.984  13.987  1.00  0.00    -0.205 F 
ENDBRANCH  22  25
ENDBRANCH   3  21
TORSDOF 3
ENDMDL
MODEL 4
REMARK VINA RESULT:    -7.861      2.521      3.858
REMARK INTER + INTRA:          -9.432
REMARK INTER:                  -8.998
REMARK INTRA:                  -0.433
REMARK UNBOUND:                -0.192
REMARK SMILES CN1C(N)=N[C@](C)(c2cc(NC(=O)c3ccc(F)cn3)ccc2F)CS1(=O)=O
REMARK SMILES IDX 8 1 9 2 10 3 21 4 22 5 23 6 24 7 6 8 25 9 5 10 26 11 3 12
REMARK SMILES IDX 27 13 2 14 28 15 4 16 7 17 1 18 11 21 12 22 13 23 14 25
REMARK SMILES IDX 20 26 15 27 19 28 16 29 17 30 18 31
REMARK H PARENT 4 19 4 20 11 24
ROOT
ATOM      1  C   UNL     1      26.340  12.556  21.813  1.00  0.00     0.018 A 
ATOM      2  C   UNL     1      25.413  12.133  22.764  1.00  0.00     0.035 A 
ATOM      3  C   UNL     1      25.325  12.706  24.013  1.00  0.00     0.042 A 
ATOM      4  C   UNL     1      26.189  13.730  24.379  1.00  0.00     0.029 A 
ATOM      5  C   UNL     1      27.114  14.165  23.447  1.00  0.00     0.042 A 
ATOM      6  C   UNL     1      27.169  13.602  22.187  1.00  0.00     0.129 A 
ATOM      7  F   UNL     1      28.066  14.068  21.280  1.00  0.00    -0.207 F 
ENDROOT
BRANCH   1   8
ATOM      8  C   UNL     1      26.410  11.905  20.441  1.00  0.00     0.105 C 
ATOM      9  C   UNL     1      26.285  12.857  19.272  1.00  0.00     0.195 C 
ATOM     10  N   UNL     1      25.450  10.811  20.303  1.00  0.00    -0.240 NA
ATOM     11  S   UNL     1      24.689  13.634  19.265  1.00  0.00     0.239 S 
ATOM     12  C   UNL     1      24.204  11.031  20.016  1.00  0.00     0.205 C 
ATOM     13  O   UNL     1      24.395  13.962  17.881  1.00  0.00    -0.206 OA
ATOM     14  N   UNL     1      23.683  12.306  19.698  1.00  0.00    -0.243 N 
ATOM     15  O   UNL     1      24.541  14.546  20.356  1.00  0.00    -0.206 OA
ATOM     16  N   UNL     1      23.276  10.026  19.970  1.00  0.00    -0.369 N 
ATOM     17  C   UNL     1      27.760  11.195  20.299  1.00  0.00     0.044 C 
ATOM     18  C   UNL     1      22.243  12.560  19.497  1.00  0.00     0.167 C 
ATOM     19  H   UNL     1      23.542   9.100  20.176  1.00  0.00     0.159 HD
ATOM     20  H   UNL     1      22.342  10.227  19.731  1.00  0.00     0.159 HD
ENDBRANCH   1   8
BRANCH   3  21
ATOM     21  N   UNL     1      24.351  12.185  24.875  1.00  0.00    -0.321 N 
ATOM     22  C   UNL     1      23.040  12.597  25.036  1.00  0.00     0.274 C 
ATOM     23  O   UNL     1      22.547  13.594  24.525  1.00  0.00    -0.267 OA
ATOM     24  H   UNL     1      24.636  11.430  25.438  1.00  0.00     0.170 HD
BRANCH  22  25
ATOM     25  C   UNL     1      22.196  11.710  25.873  1.00  0.00     0.128 A 
ATOM     26  N   UNL     1      22.106  12.028  27.169  1.00  0.00    -0.248 NA
ATOM     27  C   UNL     1      21.548  10.630  25.300  1.00  0.00     0.037 A 
ATOM     28  C   UNL     1      21.350  11.237  27.948  1.00  0.00     0.151 A 
ATOM     29  C   UNL     1      20.772   9.838  26.127  1.00  0.00     0.043 A 
ATOM     30  C   UNL     1      20.672  10.138  27.472  1.00  0.00     0.141 A 
ATOM     31  F   UNL     1      19.923   9.403  28.312  1.00  0.00    -0.205 F 
ENDBRANCH  22  25
ENDBRANCH   3  21
TORSDOF 3
ENDMDL
MODEL 5
REMARK VINA RESULT:    -7.629      4.781      7.246
REMARK INTER + INTRA:          -9.159
REMARK INTER:                  -8.901
REMARK INTRA:                  -0.258
REMARK UNBOUND:                -0.192
REMARK SMILES CN1C(N)=N[C@](C)(c2cc(NC(=O)c3ccc(F)cn3)ccc2F)CS1(=O)=O
REMARK SMILES IDX 8 1 9 2 10 3 21 4 22 5 23 6 24 7 6 8 25 9 5 10 26 11 3 12
REMARK SMILES IDX 27 13 2 14 28 15 4 16 7 17 1 18 11 21 12 22 13 23 14 25
REMARK SMILES IDX 20 26 15 27 19 28 16 29 17 30 18 31
REMARK H PARENT 4 19 4 20 11 24
ROOT
ATOM      1  C   UNL     1      23.664  12.108  20.147  1.00  0.00     0.018 A 
ATOM      2  C   UNL     1      23.227  10.823  19.826  1.00  0.00     0.035 A 
ATOM      3  C   UNL     1      22.624   9.999  20.748  1.00  0.00     0.042 A 
ATOM      4  C   UNL     1      22.448  10.421  22.060  1.00  0.00     0.029 A 
ATOM      5  C   UNL     1      22.873  11.694  22.396  1.00  0.00     0.042 A 
ATOM      6  C   UNL     1      23.447  12.522  21.452  1.00  0.00     0.129 A 
ATOM      7  F   UNL     1      23.829  13.778  21.801  1.00  0.00    -0.207 F 
ENDROOT
BRANCH   1   8
ATOM      8  C   UNL     1      24.325  12.996  19.105  1.00  0.00     0.105 C 
ATOM      9  C   UNL     1      23.691  14.358  18.929  1.00  0.00     0.195 C 
ATOM     10  N   UNL     1      24.444  12.328  17.810  1.00  0.00    -0.240 NA
ATOM     11  S   UNL     1      22.028  14.203  18.327  1.00  0.00     0.239 S 
ATOM     12  C   UNL     1      23.451  12.272  16.978  1.00  0.00     0.205 C 
ATOM     13  O   UNL     1      21.742  15.417  17.584  1.00  0.00    -0.206 OA
ATOM     14  N   UNL     1      22.220  12.936  17.177  1.00  0.00    -0.243 N 
ATOM     15  O   UNL     1      21.160  13.641  19.314  1.00  0.00    -0.206 OA
ATOM     16  N   UNL     1      23.521  11.574  15.802  1.00  0.00    -0.369 N 
ATOM     17  C   UNL     1      25.784  13.229  19.506  1.00  0.00     0.044 C 
ATOM     18  C   UNL     1      21.057  12.762  16.284  1.00  0.00     0.167 C 
ATOM     19  H   UNL     1      24.339  11.078  15.572  1.00  0.00     0.159 HD
ATOM     20  H   UNL     1      22.753  11.569  15.185  1.00  0.00     0.159 HD
ENDBRANCH   1   8
BRANCH   3  21
ATOM     21  N   UNL     1      22.234   8.731  20.297  1.00  0.00    -0.321 N 
ATOM     22  C   UNL     1      21.462   8.415  19.193  1.00  0.00     0.274 C 
ATOM     23  O   UNL     1      20.875   9.225  18.488  1.00  0.00    -0.267 OA
ATOM     24  H   UNL     1      22.550   7.968  20.833  1.00  0.00     0.170 HD
BRANCH  22  25
ATOM     25  C   UNL     1      21.399   6.972  18.857  1.00  0.00     0.128 A 
ATOM     26  N   UNL     1      20.177   6.438  18.762  1.00  0.00    -0.248 NA
ATOM     27  C   UNL     1      22.568   6.259  18.651  1.00  0.00     0.037 A 
ATOM     28  C   UNL     1      20.095   5.131  18.463  1.00  0.00     0.151 A 
ATOM     29  C   UNL     1      22.450   4.916  18.338  1.00  0.00     0.043 A 
ATOM     30  C   UNL     1      21.199   4.338  18.246  1.00  0.00     0.141 A 
ATOM     31  F   UNL     1      21.036   3.040  17.936  1.00  0.00    -0.205 F 
ENDBRANCH  22  25
ENDBRANCH   3  21
TORSDOF 3
ENDMDL
MODEL 6
REMARK VINA RESULT:    -7.408      4.346      6.681
REMARK INTER + INTRA:          -8.898
REMARK INTER:                  -8.606
REMARK INTRA:                  -0.292
REMARK UNBOUND:                -0.192
REMARK SMILES CN1C(N)=N[C@](C)(c2cc(NC(=O)c3ccc(F)cn3)ccc2F)CS1(=O)=O
REMARK SMILES IDX 8 1 9 2 10 3 21 4 22 5 23 6 24 7 6 8 25 9 5 10 26 11 3 12
REMARK SMILES IDX 27 13 2 14 28 15 4 16 7 17 1 18 11 21 12 22 13 23 14 25
REMARK SMILES IDX 20 26 15 27 19 28 16 29 17 30 18 31
REMARK H PARENT 4 19 4 20 11 24
ROOT
ATOM      1  C   UNL     1      24.933  11.554  20.946  1.00  0.00     0.018 A 
ATOM      2  C   UNL     1      24.482  10.279  20.608  1.00  0.00     0.035 A 
ATOM      3  C   UNL     1      23.181   9.879  20.814  1.00  0.00     0.042 A 
ATOM      4  C   UNL     1      22.264  10.744  21.398  1.00  0.00     0.029 A 
ATOM      5  C   UNL     1      22.693  12.015  21.737  1.00  0.00     0.042 A 
ATOM      6  C   UNL     1      23.993  12.412  21.495  1.00  0.00     0.129 A 
ATOM      7  F   UNL     1      24.382  13.675  21.811  1.00  0.00    -0.207 F 
ENDROOT
BRANCH   1   8
ATOM      8  C   UNL     1      26.377  11.966  20.703  1.00  0.00     0.105 C 
ATOM      9  C   UNL     1      26.557  13.167  19.801  1.00  0.00     0.195 C 
ATOM     10  N   UNL     1      27.193  10.852  20.225  1.00  0.00    -0.240 NA
ATOM     11  S   UNL     1      25.960  12.818  18.166  1.00  0.00     0.239 S 
ATOM     12  C   UNL     1      27.197  10.497  18.977  1.00  0.00     0.205 C 
ATOM     13  O   UNL     1      26.720  13.660  17.260  1.00  0.00    -0.206 OA
ATOM     14  N   UNL     1      26.524  11.205  17.956  1.00  0.00    -0.243 N 
ATOM     15  O   UNL     1      24.537  12.688  18.140  1.00  0.00    -0.206 OA
ATOM     16  N   UNL     1      27.887   9.401  18.531  1.00  0.00    -0.369 N 
ATOM     17  C   UNL     1      27.025  12.313  22.047  1.00  0.00     0.044 C 
ATOM     18  C   UNL     1      26.435  10.720  16.565  1.00  0.00     0.167 C 
ATOM     19  H   UNL     1      28.389   8.843  19.168  1.00  0.00     0.159 HD
ATOM     20  H   UNL     1      27.882   9.172  17.573  1.00  0.00     0.159 HD
ENDBRANCH   1   8
BRANCH   3  21
ATOM     21  N   UNL     1      22.859   8.571  20.431  1.00  0.00    -0.321 N 
ATOM     22  C   UNL     1      21.945   8.157  19.478  1.00  0.00     0.274 C 
ATOM     23  O   UNL     1      21.160   8.889  18.890  1.00  0.00    -0.267 OA
ATOM     24  H   UNL     1      23.344   7.854  20.901  1.00  0.00     0.170 HD
BRANCH  22  25
ATOM     25  C   UNL     1      21.982   6.711  19.151  1.00  0.00     0.128 A 
ATOM     26  N   UNL     1      21.232   5.911  19.916  1.00  0.00    -0.248 NA
ATOM     27  C   UNL     1      22.757   6.260  18.097  1.00  0.00     0.037 A 
ATOM     28  C   UNL     1      21.252   4.596  19.642  1.00  0.00     0.151 A 
ATOM     29  C   UNL     1      22.753   4.901  17.835  1.00  0.00     0.043 A 
ATOM     30  C   UNL     1      21.995   4.052  18.618  1.00  0.00     0.141 A 
ATOM     31  F   UNL     1      21.952   2.727  18.397  1.00  0.00    -0.205 F 
ENDBRANCH  22  25
ENDBRANCH   3  21
TORSDOF 3
ENDMDL
MODEL 7
REMARK VINA RESULT:    -7.223      6.530      8.153
REMARK INTER + INTRA:          -8.682
REMARK INTER:                  -8.423
REMARK INTRA:                  -0.259
REMARK UNBOUND:                -0.192
REMARK SMILES CN1C(N)=N[C@](C)(c2cc(NC(=O)c3ccc(F)cn3)ccc2F)CS1(=O)=O
REMARK SMILES IDX 8 1 9 2 10 3 21 4 22 5 23 6 24 7 6 8 25 9 5 10 26 11 3 12
REMARK SMILES IDX 27 13 2 14 28 15 4 16 7 17 1 18 11 21 12 22 13 23 14 25
REMARK SMILES IDX 20 26 15 27 19 28 16 29 17 30 18 31
REMARK H PARENT 4 19 4 20 11 24
ROOT
ATOM      1  C   UNL     1      24.202   6.953  14.939  1.00  0.00     0.018 A 
ATOM      2  C   UNL     1      24.007   7.911  15.933  1.00  0.00     0.035 A 
ATOM      3  C   UNL     1      23.417   7.610  17.140  1.00  0.00     0.042 A 
ATOM      4  C   UNL     1      22.968   6.322  17.402  1.00  0.00     0.029 A 
ATOM      5  C   UNL     1      23.157   5.357  16.428  1.00  0.00     0.042 A 
ATOM      6  C   UNL     1      23.780   5.666  15.235  1.00  0.00     0.129 A 
ATOM      7  F   UNL     1      23.980   4.694  14.307  1.00  0.00    -0.207 F 
ENDROOT
BRANCH   1   8
ATOM      8  C   UNL     1      24.860   7.316  13.617  1.00  0.00     0.105 C 
ATOM      9  C   UNL     1      25.910   6.340  13.135  1.00  0.00     0.195 C 
ATOM     10  N   UNL     1      25.405   8.673  13.630  1.00  0.00    -0.240 NA
ATOM     11  S   UNL     1      27.280   6.285  14.261  1.00  0.00     0.239 S 
ATOM     12  C   UNL     1      26.561   8.939  14.155  1.00  0.00     0.205 C 
ATOM     13  O   UNL     1      28.445   5.909  13.479  1.00  0.00    -0.206 OA
ATOM     14  N   UNL     1      27.444   7.954  14.650  1.00  0.00    -0.243 N 
ATOM     15  O   UNL     1      26.918   5.678  15.504  1.00  0.00    -0.206 OA
ATOM     16  N   UNL     1      27.043  10.216  14.253  1.00  0.00    -0.369 N 
ATOM     17  C   UNL     1      23.782   7.389  12.532  1.00  0.00     0.044 C 
ATOM     18  C   UNL     1      28.698   8.279  15.357  1.00  0.00     0.167 C 
ATOM     19  H   UNL     1      26.499  10.973  13.934  1.00  0.00     0.159 HD
ATOM     20  H   UNL     1      27.933  10.379  14.641  1.00  0.00     0.159 HD
ENDBRANCH   1   8
BRANCH   3  21
ATOM     21  N   UNL     1      23.277   8.665  18.051  1.00  0.00    -0.321 N 
ATOM     22  C   UNL     1      22.117   9.304  18.451  1.00  0.00     0.274 C 
ATOM     23  O   UNL     1      21.010   9.125  17.962  1.00  0.00    -0.267 OA
ATOM     24  H   UNL     1      24.111   8.994  18.458  1.00  0.00     0.170 HD
BRANCH  22  25
ATOM     25  C   UNL     1      22.272  10.243  19.589  1.00  0.00     0.128 A 
ATOM     26  N   UNL     1      22.327  11.543  19.281  1.00  0.00    -0.248 NA
ATOM     27  C   UNL     1      22.340   9.756  20.883  1.00  0.00     0.037 A 
ATOM     28  C   UNL     1      22.471  12.413  20.294  1.00  0.00     0.151 A 
ATOM     29  C   UNL     1      22.483  10.677  21.906  1.00  0.00     0.043 A 
ATOM     30  C   UNL     1      22.554  12.025  21.613  1.00  0.00     0.141 A 
ATOM     31  F   UNL     1      22.683  12.956  22.573  1.00  0.00    -0.205 F 
ENDBRANCH  22  25
ENDBRANCH   3  21
TORSDOF 3
ENDMDL
MODEL 8
REMARK VINA RESULT:    -7.215      4.594      6.161
REMARK INTER + INTRA:          -8.672
REMARK INTER:                  -8.394
REMARK INTRA:                  -0.279
REMARK UNBOUND:                -0.192
REMARK SMILES CN1C(N)=N[C@](C)(c2cc(NC(=O)c3ccc(F)cn3)ccc2F)CS1(=O)=O
REMARK SMILES IDX 8 1 9 2 10 3 21 4 22 5 23 6 24 7 6 8 25 9 5 10 26 11 3 12
REMARK SMILES IDX 27 13 2 14 28 15 4 16 7 17 1 18 11 21 12 22 13 23 14 25
REMARK SMILES IDX 20 26 15 27 19 28 16 29 17 30 18 31
REMARK H PARENT 4 19 4 20 11 24
ROOT
ATOM      1  C   UNL     1      21.614   8.199  17.175  1.00  0.00     0.018 A 
ATOM      2  C   UNL     1      21.831   8.828  18.400  1.00  0.00     0.035 A 
ATOM      3  C   UNL     1      22.120   8.126  19.548  1.00  0.00     0.042 A 
ATOM      4  C   UNL     1      22.185   6.738  19.526  1.00  0.00     0.029 A 
ATOM      5  C   UNL     1      21.976   6.097  18.318  1.00  0.00     0.042 A 
ATOM      6  C   UNL     1      21.718   6.817  17.168  1.00  0.00     0.129 A 
ATOM      7  F   UNL     1      21.545   6.165  15.989  1.00  0.00    -0.207 F 
ENDROOT
BRANCH   1   8
ATOM      8  C   UNL     1      21.299   9.004  15.924  1.00  0.00     0.105 C 
ATOM      9  C   UNL     1      22.260   8.802  14.774  1.00  0.00     0.195 C 
ATOM     10  N   UNL     1      21.152  10.430  16.211  1.00  0.00    -0.240 NA
ATOM     11  S   UNL     1      23.887   9.363  15.210  1.00  0.00     0.239 S 
ATOM     12  C   UNL     1      22.180  11.212  16.326  1.00  0.00     0.205 C 
ATOM     13  O   UNL     1      24.534   9.760  13.973  1.00  0.00    -0.206 OA
ATOM     14  N   UNL     1      23.509  10.804  16.073  1.00  0.00    -0.243 N 
ATOM     15  O   UNL     1      24.488   8.521  16.197  1.00  0.00    -0.206 OA
ATOM     16  N   UNL     1      22.061  12.529  16.681  1.00  0.00    -0.369 N 
ATOM     17  C   UNL     1      19.908   8.610  15.420  1.00  0.00     0.044 C 
ATOM     18  C   UNL     1      24.678  11.669  16.327  1.00  0.00     0.167 C 
ATOM     19  H   UNL     1      21.174  12.907  16.877  1.00  0.00     0.159 HD
ATOM     20  H   UNL     1      22.863  13.097  16.740  1.00  0.00     0.159 HD
ENDBRANCH   1   8
BRANCH   3  21
ATOM     21  N   UNL     1      22.314   8.879  20.713  1.00  0.00    -0.321 N 
ATOM     22  C   UNL     1      23.271   9.847  20.959  1.00  0.00     0.274 C 
ATOM     23  O   UNL     1      24.208  10.115  20.218  1.00  0.00    -0.267 OA
ATOM     24  H   UNL     1      21.688   8.696  21.451  1.00  0.00     0.170 HD
BRANCH  22  25
ATOM     25  C   UNL     1      23.086  10.617  22.213  1.00  0.00     0.128 A 
ATOM     26  N   UNL     1      23.283   9.947  23.354  1.00  0.00    -0.248 NA
ATOM     27  C   UNL     1      22.739  11.955  22.158  1.00  0.00     0.037 A 
ATOM     28  C   UNL     1      23.118  10.622  24.503  1.00  0.00     0.151 A 
ATOM     29  C   UNL     1      22.581  12.625  23.358  1.00  0.00     0.043 A 
ATOM     30  C   UNL     1      22.767  11.953  24.551  1.00  0.00     0.141 A 
ATOM     31  F   UNL     1      22.634  12.563  25.741  1.00  0.00    -0.205 F 
ENDBRANCH  22  25
ENDBRANCH   3  21
TORSDOF 3
ENDMDL
MODEL 9
REMARK VINA RESULT:    -7.119      4.947      6.778
REMARK INTER + INTRA:          -8.559
REMARK INTER:                  -8.939
REMARK INTRA:                   0.380
REMARK UNBOUND:                -0.192
REMARK SMILES CN1C(N)=N[C@](C)(c2cc(NC(=O)c3ccc(F)cn3)ccc2F)CS1(=O)=O
REMARK SMILES IDX 8 1 9 2 10 3 21 4 22 5 23 6 24 7 6 8 25 9 5 10 26 11 3 12
REMARK SMILES IDX 27 13 2 14 28 15 4 16 7 17 1 18 11 21 12 22 13 23 14 25
REMARK SMILES IDX 20 26 15 27 19 28 16 29 17 30 18 31
REMARK H PARENT 4 19 4 20 11 24
ROOT
ATOM      1  C   UNL     1      22.710   9.122  17.486  1.00  0.00     0.018 A 
ATOM      2  C   UNL     1      22.650   9.524  18.820  1.00  0.00     0.035 A 
ATOM      3  C   UNL     1      23.726  10.088  19.468  1.00  0.00     0.042 A 
ATOM      4  C   UNL     1      24.936  10.257  18.807  1.00  0.00     0.029 A 
ATOM      5  C   UNL     1      25.013   9.867  17.481  1.00  0.00     0.042 A 
ATOM      6  C   UNL     1      23.916   9.332  16.835  1.00  0.00     0.129 A 
ATOM      7  F   UNL     1      24.009   8.984  15.525  1.00  0.00    -0.207 F 
ENDROOT
BRANCH   1   8
ATOM      8  C   UNL     1      21.504   8.504  16.797  1.00  0.00     0.105 C 
ATOM      9  C   UNL     1      20.499   7.855  17.723  1.00  0.00     0.195 C 
ATOM     10  N   UNL     1      21.893   7.569  15.743  1.00  0.00    -0.240 NA
ATOM     11  S   UNL     1      21.227   6.473  18.567  1.00  0.00     0.239 S 
ATOM     12  C   UNL     1      22.232   6.345  16.009  1.00  0.00     0.205 C 
ATOM     13  O   UNL     1      20.144   5.556  18.872  1.00  0.00    -0.206 OA
ATOM     14  N   UNL     1      22.149   5.769  17.295  1.00  0.00    -0.243 N 
ATOM     15  O   UNL     1      22.214   6.893  19.513  1.00  0.00    -0.206 OA
ATOM     16  N   UNL     1      22.683   5.486  15.043  1.00  0.00    -0.369 N 
ATOM     17  C   UNL     1      20.761   9.599  16.026  1.00  0.00     0.044 C 
ATOM     18  C   UNL     1      22.655   4.417  17.606  1.00  0.00     0.167 C 
ATOM     19  H   UNL     1      22.775   5.795  14.113  1.00  0.00     0.159 HD
ATOM     20  H   UNL     1      22.915   4.558  15.278  1.00  0.00     0.159 HD
ENDBRANCH   1   8
BRANCH   3  21
ATOM     21  N   UNL     1      23.533  10.445  20.809  1.00  0.00    -0.321 N 
ATOM     22  C   UNL     1      22.849  11.536  21.315  1.00  0.00     0.274 C 
ATOM     23  O   UNL     1      22.399  12.457  20.647  1.00  0.00    -0.267 OA
ATOM     24  H   UNL     1      23.936   9.843  21.475  1.00  0.00     0.170 HD
BRANCH  22  25
ATOM     25  C   UNL     1      22.640  11.526  22.784  1.00  0.00     0.128 A 
ATOM     26  N   UNL     1      22.491  10.326  23.353  1.00  0.00    -0.248 NA
ATOM     27  C   UNL     1      22.620  12.718  23.486  1.00  0.00     0.037 A 
ATOM     28  C   UNL     1      22.296  10.292  24.682  1.00  0.00     0.151 A 
ATOM     29  C   UNL     1      22.423  12.650  24.855  1.00  0.00     0.043 A 
ATOM     30  C   UNL     1      22.254  11.423  25.465  1.00  0.00     0.141 A 
ATOM     31  F   UNL     1      22.070  11.307  26.791  1.00  0.00    -0.205 F 
ENDBRANCH  22  25
ENDBRANCH   3  21
TORSDOF 3
ENDMDL
MODEL 10
REMARK VINA RESULT:    -7.111      7.091     10.862
REMARK INTER + INTRA:          -8.550
REMARK INTER:                  -8.149
REMARK INTRA:                  -0.401
REMARK UNBOUND:                -0.192
REMARK SMILES CN1C(N)=N[C@](C)(c2cc(NC(=O)c3ccc(F)cn3)ccc2F)CS1(=O)=O
REMARK SMILES IDX 8 1 9 2 10 3 21 4 22 5 23 6 24 7 6 8 25 9 5 10 26 11 3 12
REMARK SMILES IDX 27 13 2 14 28 15 4 16 7 17 1 18 11 21 12 22 13 23 14 25
REMARK SMILES IDX 20 26 15 27 19 28 16 29 17 30 18 31
REMARK H PARENT 4 19 4 20 11 24
ROOT
ATOM      1  C   UNL     1      23.294   9.607  17.131  1.00  0.00     0.018 A 
ATOM      2  C   UNL     1      24.346   8.899  16.553  1.00  0.00     0.035 A 
ATOM      3  C   UNL     1      25.649   9.041  16.975  1.00  0.00     0.042 A 
ATOM      4  C   UNL     1      25.964   9.928  17.997  1.00  0.00     0.029 A 
ATOM      5  C   UNL     1      24.932  10.636  18.585  1.00  0.00     0.042 A 
ATOM      6  C   UNL     1      23.625  10.460  18.172  1.00  0.00     0.129 A 
ATOM      7  F   UNL     1      22.627  11.145  18.786  1.00  0.00    -0.207 F 
ENDROOT
BRANCH   1   8
ATOM      8  C   UNL     1      21.865   9.425  16.644  1.00  0.00     0.105 C 
ATOM      9  C   UNL     1      20.866   9.048  17.715  1.00  0.00     0.195 C 
ATOM     10  N   UNL     1      21.781   8.487  15.526  1.00  0.00    -0.240 NA
ATOM     11  S   UNL     1      21.257   7.460  18.405  1.00  0.00     0.239 S 
ATOM     12  C   UNL     1      21.766   7.204  15.713  1.00  0.00     0.205 C 
ATOM     13  O   UNL     1      20.005   6.892  18.873  1.00  0.00    -0.206 OA
ATOM     14  N   UNL     1      21.710   6.596  16.987  1.00  0.00    -0.243 N 
ATOM     15  O   UNL     1      22.458   7.502  19.179  1.00  0.00    -0.206 OA
ATOM     16  N   UNL     1      21.777   6.313  14.673  1.00  0.00    -0.369 N 
ATOM     17  C   UNL     1      21.383  10.741  16.025  1.00  0.00     0.044 C 
ATOM     18  C   UNL     1      21.820   5.137  17.188  1.00  0.00     0.167 C 
ATOM     19  H   UNL     1      21.814   6.641  13.745  1.00  0.00     0.159 HD
ATOM     20  H   UNL     1      21.747   5.346  14.852  1.00  0.00     0.159 HD
ENDBRANCH   1   8
BRANCH   3  21
ATOM     21  N   UNL     1      26.612   8.273  16.308  1.00  0.00    -0.321 N 
ATOM     22  C   UNL     1      27.555   8.693  15.387  1.00  0.00     0.274 C 
ATOM     23  O   UNL     1      27.614   9.815  14.901  1.00  0.00    -0.267 OA
ATOM     24  H   UNL     1      26.619   7.312  16.522  1.00  0.00     0.170 HD
BRANCH  22  25
ATOM     25  C   UNL     1      28.574   7.681  15.017  1.00  0.00     0.128 A 
ATOM     26  N   UNL     1      29.112   7.799  13.798  1.00  0.00    -0.248 NA
ATOM     27  C   UNL     1      28.925   6.692  15.919  1.00  0.00     0.037 A 
ATOM     28  C   UNL     1      30.034   6.891  13.439  1.00  0.00     0.151 A 
ATOM     29  C   UNL     1      29.882   5.774  15.522  1.00  0.00     0.043 A 
ATOM     30  C   UNL     1      30.444   5.868  14.264  1.00  0.00     0.141 A 
ATOM     31  F   UNL     1      31.383   5.006  13.838  1.00  0.00    -0.205 F 
ENDBRANCH  22  25
ENDBRANCH   3  21
TORSDOF 3
ENDMDL
MODEL 11
REMARK VINA RESULT:    -7.075      8.545     11.329
REMARK INTER + INTRA:          -8.507
REMARK INTER:                  -8.092
REMARK INTRA:                  -0.416
REMARK UNBOUND:                -0.192
REMARK SMILES CN1C(N)=N[C@](C)(c2cc(NC(=O)c3ccc(F)cn3)ccc2F)CS1(=O)=O
REMARK SMILES IDX 8 1 9 2 10 3 21 4 22 5 23 6 24 7 6 8 25 9 5 10 26 11 3 12
REMARK SMILES IDX 27 13 2 14 28 15 4 16 7 17 1 18 11 21 12 22 13 23 14 25
REMARK SMILES IDX 20 26 15 27 19 28 16 29 17 30 18 31
REMARK H PARENT 4 19 4 20 11 24
ROOT
ATOM      1  C   UNL     1      22.494   8.989  14.367  1.00  0.00     0.018 A 
ATOM      2  C   UNL     1      23.783   8.459  14.374  1.00  0.00     0.035 A 
ATOM      3  C   UNL     1      24.902   9.238  14.186  1.00  0.00     0.042 A 
ATOM      4  C   UNL     1      24.778  10.603  13.956  1.00  0.00     0.029 A 
ATOM      5  C   UNL     1      23.506  11.148  13.949  1.00  0.00     0.042 A 
ATOM      6  C   UNL     1      22.395  10.358  14.171  1.00  0.00     0.129 A 
ATOM      7  F   UNL     1      21.160  10.923  14.187  1.00  0.00    -0.207 F 
ENDROOT
BRANCH   1   8
ATOM      8  C   UNL     1      21.278   8.102  14.581  1.00  0.00     0.105 C 
ATOM      9  C   UNL     1      20.344   8.550  15.682  1.00  0.00     0.195 C 
ATOM     10  N   UNL     1      21.649   6.701  14.776  1.00  0.00    -0.240 NA
ATOM     11  S   UNL     1      21.159   8.496  17.257  1.00  0.00     0.239 S 
ATOM     12  C   UNL     1      22.044   6.255  15.928  1.00  0.00     0.205 C 
ATOM     13  O   UNL     1      20.125   8.279  18.252  1.00  0.00    -0.206 OA
ATOM     14  N   UNL     1      22.043   7.026  17.112  1.00  0.00    -0.243 N 
ATOM     15  O   UNL     1      22.175   9.497  17.360  1.00  0.00    -0.206 OA
ATOM     16  N   UNL     1      22.477   4.968  16.104  1.00  0.00    -0.369 N 
ATOM     17  C   UNL     1      20.461   8.063  13.286  1.00  0.00     0.044 C 
ATOM     18  C   UNL     1      22.611   6.545  18.387  1.00  0.00     0.167 C 
ATOM     19  H   UNL     1      22.514   4.352  15.337  1.00  0.00     0.159 HD
ATOM     20  H   UNL     1      22.753   4.659  16.998  1.00  0.00     0.159 HD
ENDBRANCH   1   8
BRANCH   3  21
ATOM     21  N   UNL     1      26.138   8.580  14.215  1.00  0.00    -0.321 N 
ATOM     22  C   UNL     1      26.801   8.047  15.306  1.00  0.00     0.274 C 
ATOM     23  O   UNL     1      26.459   8.185  16.473  1.00  0.00    -0.267 OA
ATOM     24  H   UNL     1      26.593   8.483  13.347  1.00  0.00     0.170 HD
BRANCH  22  25
ATOM     25  C   UNL     1      27.993   7.225  14.984  1.00  0.00     0.128 A 
ATOM     26  N   UNL     1      28.357   7.187  13.698  1.00  0.00    -0.248 NA
ATOM     27  C   UNL     1      28.666   6.560  15.994  1.00  0.00     0.037 A 
ATOM     28  C   UNL     1      29.431   6.446  13.382  1.00  0.00     0.151 A 
ATOM     29  C   UNL     1      29.772   5.809  15.637  1.00  0.00     0.043 A 
ATOM     30  C   UNL     1      30.162   5.744  14.313  1.00  0.00     0.141 A 
ATOM     31  F   UNL     1      31.235   5.035  13.921  1.00  0.00    -0.205 F 
ENDBRANCH  22  25
ENDBRANCH   3  21
TORSDOF 3
ENDMDL
MODEL 12
REMARK VINA RESULT:    -7.056      8.464     11.863
REMARK INTER + INTRA:          -8.485
REMARK INTER:                  -8.277
REMARK INTRA:                  -0.208
REMARK UNBOUND:                -0.192
REMARK SMILES CN1C(N)=N[C@](C)(c2cc(NC(=O)c3ccc(F)cn3)ccc2F)CS1(=O)=O
REMARK SMILES IDX 8 1 9 2 10 3 21 4 22 5 23 6 24 7 6 8 25 9 5 10 26 11 3 12
REMARK SMILES IDX 27 13 2 14 28 15 4 16 7 17 1 18 11 21 12 22 13 23 14 25
REMARK SMILES IDX 20 26 15 27 19 28 16 29 17 30 18 31
REMARK H PARENT 4 19 4 20 11 24
ROOT
ATOM      1  C   UNL     1      24.073   6.592  14.814  1.00  0.00     0.018 A 
ATOM      2  C   UNL     1      25.453   6.746  14.942  1.00  0.00     0.035 A 
ATOM      3  C   UNL     1      26.326   6.434  13.924  1.00  0.00     0.042 A 
ATOM      4  C   UNL     1      25.852   5.925  12.722  1.00  0.00     0.029 A 
ATOM      5  C   UNL     1      24.485   5.768  12.576  1.00  0.00     0.042 A 
ATOM      6  C   UNL     1      23.618   6.116  13.593  1.00  0.00     0.129 A 
ATOM      7  F   UNL     1      22.279   5.980  13.414  1.00  0.00    -0.207 F 
ENDROOT
BRANCH   1   8
ATOM      8  C   UNL     1      23.134   6.948  15.955  1.00  0.00     0.105 C 
ATOM      9  C   UNL     1      21.877   7.684  15.545  1.00  0.00     0.195 C 
ATOM     10  N   UNL     1      23.818   7.679  17.021  1.00  0.00    -0.240 NA
ATOM     11  S   UNL     1      22.276   9.266  14.848  1.00  0.00     0.239 S 
ATOM     12  C   UNL     1      24.034   8.955  16.942  1.00  0.00     0.205 C 
ATOM     13  O   UNL     1      21.135  10.128  15.097  1.00  0.00    -0.206 OA
ATOM     14  N   UNL     1      23.539   9.773  15.902  1.00  0.00    -0.243 N 
ATOM     15  O   UNL     1      22.922   9.135  13.579  1.00  0.00    -0.206 OA
ATOM     16  N   UNL     1      24.750   9.635  17.891  1.00  0.00    -0.369 N 
ATOM     17  C   UNL     1      22.692   5.659  16.653  1.00  0.00     0.044 C 
ATOM     18  C   UNL     1      23.897  11.199  15.760  1.00  0.00     0.167 C 
ATOM     19  H   UNL     1      25.136   9.151  18.656  1.00  0.00     0.159 HD
ATOM     20  H   UNL     1      24.879  10.608  17.807  1.00  0.00     0.159 HD
ENDBRANCH   1   8
BRANCH   3  21
ATOM     21  N   UNL     1      27.688   6.633  14.183  1.00  0.00    -0.321 N 
ATOM     22  C   UNL     1      28.568   5.790  14.839  1.00  0.00     0.274 C 
ATOM     23  O   UNL     1      28.254   4.762  15.426  1.00  0.00    -0.267 OA
ATOM     24  H   UNL     1      28.068   7.480  13.857  1.00  0.00     0.170 HD
BRANCH  22  25
ATOM     25  C   UNL     1      29.995   6.186  14.769  1.00  0.00     0.128 A 
ATOM     26  N   UNL     1      30.448   6.951  15.769  1.00  0.00    -0.248 NA
ATOM     27  C   UNL     1      30.781   5.756  13.714  1.00  0.00     0.037 A 
ATOM     28  C   UNL     1      31.737   7.326  15.725  1.00  0.00     0.151 A 
ATOM     29  C   UNL     1      32.106   6.153  13.700  1.00  0.00     0.043 A 
ATOM     30  C   UNL     1      32.595   6.953  14.715  1.00  0.00     0.141 A 
ATOM     31  F   UNL     1      33.877   7.357  14.749  1.00  0.00    -0.205 F 
ENDBRANCH  22  25
ENDBRANCH   3  21
TORSDOF 3
ENDMDL
MODEL 13
REMARK VINA RESULT:    -7.052      4.409      6.775
REMARK INTER + INTRA:          -8.480
REMARK INTER:                  -8.334
REMARK INTRA:                  -0.146
REMARK UNBOUND:                -0.192
REMARK SMILES CN1C(N)=N[C@](C)(c2cc(NC(=O)c3ccc(F)cn3)ccc2F)CS1(=O)=O
REMARK SMILES IDX 8 1 9 2 10 3 21 4 22 5 23 6 24 7 6 8 25 9 5 10 26 11 3 12
REMARK SMILES IDX 27 13 2 14 28 15 4 16 7 17 1 18 11 21 12 22 13 23 14 25
REMARK SMILES IDX 20 26 15 27 19 28 16 29 17 30 18 31
REMARK H PARENT 4 19 4 20 11 24
ROOT
ATOM      1  C   UNL     1      22.930  11.775  19.810  1.00  0.00     0.018 A 
ATOM      2  C   UNL     1      22.891  10.398  19.591  1.00  0.00     0.035 A 
ATOM      3  C   UNL     1      22.098   9.830  18.620  1.00  0.00     0.042 A 
ATOM      4  C   UNL     1      21.278  10.623  17.828  1.00  0.00     0.029 A 
ATOM      5  C   UNL     1      21.307  11.992  18.029  1.00  0.00     0.042 A 
ATOM      6  C   UNL     1      22.132  12.551  18.985  1.00  0.00     0.129 A 
ATOM      7  F   UNL     1      22.163  13.900  19.142  1.00  0.00    -0.207 F 
ENDROOT
BRANCH   1   8
ATOM      8  C   UNL     1      23.820  12.373  20.889  1.00  0.00     0.105 C 
ATOM      9  C   UNL     1      24.517  13.658  20.504  1.00  0.00     0.195 C 
ATOM     10  N   UNL     1      24.792  11.407  21.397  1.00  0.00    -0.240 NA
ATOM     11  S   UNL     1      25.647  13.381  19.163  1.00  0.00     0.239 S 
ATOM     12  C   UNL     1      25.901  11.161  20.769  1.00  0.00     0.205 C 
ATOM     13  O   UNL     1      26.693  14.381  19.289  1.00  0.00    -0.206 OA
ATOM     14  N   UNL     1      26.329  11.869  19.624  1.00  0.00    -0.243 N 
ATOM     15  O   UNL     1      24.958  13.088  17.945  1.00  0.00    -0.206 OA
ATOM     16  N   UNL     1      26.778  10.196  21.186  1.00  0.00    -0.369 N 
ATOM     17  C   UNL     1      22.964  12.679  22.121  1.00  0.00     0.044 C 
ATOM     18  C   UNL     1      27.529  11.497  18.850  1.00  0.00     0.167 C 
ATOM     19  H   UNL     1      26.568   9.649  21.977  1.00  0.00     0.159 HD
ATOM     20  H   UNL     1      27.619  10.050  20.695  1.00  0.00     0.159 HD
ENDBRANCH   1   8
BRANCH   3  21
ATOM     21  N   UNL     1      22.150   8.434  18.505  1.00  0.00    -0.321 N 
ATOM     22  C   UNL     1      21.596   7.484  19.345  1.00  0.00     0.274 C 
ATOM     23  O   UNL     1      21.066   7.720  20.423  1.00  0.00    -0.267 OA
ATOM     24  H   UNL     1      22.642   8.086  17.727  1.00  0.00     0.170 HD
BRANCH  22  25
ATOM     25  C   UNL     1      21.642   6.090  18.841  1.00  0.00     0.128 A 
ATOM     26  N   UNL     1      21.139   5.151  19.649  1.00  0.00    -0.248 NA
ATOM     27  C   UNL     1      22.177   5.824  17.592  1.00  0.00     0.037 A 
ATOM     28  C   UNL     1      21.173   3.880  19.215  1.00  0.00     0.151 A 
ATOM     29  C   UNL     1      22.193   4.506  17.172  1.00  0.00     0.043 A 
ATOM     30  C   UNL     1      21.690   3.515  17.993  1.00  0.00     0.141 A 
ATOM     31  F   UNL     1      21.676   2.223  17.623  1.00  0.00    -0.205 F 
ENDBRANCH  22  25
ENDBRANCH   3  21
TORSDOF 3
ENDMDL
MODEL 14
REMARK VINA RESULT:    -6.947      3.789      6.080
REMARK INTER + INTRA:          -8.357
REMARK INTER:                  -8.697
REMARK INTRA:                   0.340
REMARK UNBOUND:                -0.192
REMARK SMILES CN1C(N)=N[C@](C)(c2cc(NC(=O)c3ccc(F)cn3)ccc2F)CS1(=O)=O
REMARK SMILES IDX 8 1 9 2 10 3 21 4 22 5 23 6 24 7 6 8 25 9 5 10 26 11 3 12
REMARK SMILES IDX 27 13 2 14 28 15 4 16 7 17 1 18 11 21 12 22 13 23 14 25
REMARK SMILES IDX 20 26 15 27 19 28 16 29 17 30 18 31
REMARK H PARENT 4 19 4 20 11 24
ROOT
ATOM      1  C   UNL     1      24.215  11.900  20.429  1.00  0.00     0.018 A 
ATOM      2  C   UNL     1      23.830  10.597  20.119  1.00  0.00     0.035 A 
ATOM      3  C   UNL     1      22.961   9.878  20.908  1.00  0.00     0.042 A 
ATOM      4  C   UNL     1      22.447  10.432  22.074  1.00  0.00     0.029 A 
ATOM      5  C   UNL     1      22.816  11.726  22.396  1.00  0.00     0.042 A 
ATOM      6  C   UNL     1      23.663  12.447  21.577  1.00  0.00     0.129 A 
ATOM      7  F   UNL     1      23.986  13.726  21.901  1.00  0.00    -0.207 F 
ENDROOT
BRANCH   1   8
ATOM      8  C   UNL     1      25.174  12.670  19.534  1.00  0.00     0.105 C 
ATOM      9  C   UNL     1      26.217  11.825  18.837  1.00  0.00     0.195 C 
ATOM     10  N   UNL     1      25.816  13.776  20.242  1.00  0.00    -0.240 NA
ATOM     11  S   UNL     1      27.298  11.060  20.018  1.00  0.00     0.239 S 
ATOM     12  C   UNL     1      26.848  13.589  21.006  1.00  0.00     0.205 C 
ATOM     13  O   UNL     1      28.569  10.857  19.346  1.00  0.00    -0.206 OA
ATOM     14  N   UNL     1      27.514  12.350  21.138  1.00  0.00    -0.243 N 
ATOM     15  O   UNL     1      26.622  10.057  20.780  1.00  0.00    -0.206 OA
ATOM     16  N   UNL     1      27.404  14.600  21.744  1.00  0.00    -0.369 N 
ATOM     17  C   UNL     1      24.369  13.381  18.443  1.00  0.00     0.044 C 
ATOM     18  C   UNL     1      28.607  12.123  22.104  1.00  0.00     0.167 C 
ATOM     19  H   UNL     1      27.010  15.502  21.718  1.00  0.00     0.159 HD
ATOM     20  H   UNL     1      28.198  14.425  22.299  1.00  0.00     0.159 HD
ENDBRANCH   1   8
BRANCH   3  21
ATOM     21  N   UNL     1      22.658   8.577  20.485  1.00  0.00    -0.321 N 
ATOM     22  C   UNL     1      21.812   8.183  19.464  1.00  0.00     0.274 C 
ATOM     23  O   UNL     1      21.074   8.929  18.834  1.00  0.00    -0.267 OA
ATOM     24  H   UNL     1      23.105   7.851  20.977  1.00  0.00     0.170 HD
BRANCH  22  25
ATOM     25  C   UNL     1      21.863   6.741  19.120  1.00  0.00     0.128 A 
ATOM     26  N   UNL     1      21.129   5.924  19.882  1.00  0.00    -0.248 NA
ATOM     27  C   UNL     1      22.633   6.313  18.053  1.00  0.00     0.037 A 
ATOM     28  C   UNL     1      21.163   4.612  19.591  1.00  0.00     0.151 A 
ATOM     29  C   UNL     1      22.643   4.957  17.775  1.00  0.00     0.043 A 
ATOM     30  C   UNL     1      21.903   4.090  18.555  1.00  0.00     0.141 A 
ATOM     31  F   UNL     1      21.874   2.767  18.317  1.00  0.00    -0.205 F 
ENDBRANCH  22  25
ENDBRANCH   3  21
TORSDOF 3
ENDMDL
MODEL 15
REMARK VINA RESULT:    -6.843      3.718      6.037
REMARK INTER + INTRA:          -8.235
REMARK INTER:                  -7.769
REMARK INTRA:                  -0.466
REMARK UNBOUND:                -0.192
REMARK SMILES CN1C(N)=N[C@](C)(c2cc(NC(=O)c3ccc(F)cn3)ccc2F)CS1(=O)=O
REMARK SMILES IDX 8 1 9 2 10 3 21 4 22 5 23 6 24 7 6 8 25 9 5 10 26 11 3 12
REMARK SMILES IDX 27 13 2 14 28 15 4 16 7 17 1 18 11 21 12 22 13 23 14 25
REMARK SMILES IDX 20 26 15 27 19 28 16 29 17 30 18 31
REMARK H PARENT 4 19 4 20 11 24
ROOT
ATOM      1  C   UNL     1      25.409  12.830  22.633  1.00  0.00     0.018 A 
ATOM      2  C   UNL     1      24.697  11.869  21.916  1.00  0.00     0.035 A 
ATOM      3  C   UNL     1      23.347  11.669  22.092  1.00  0.00     0.042 A 
ATOM      4  C   UNL     1      22.641  12.420  23.024  1.00  0.00     0.029 A 
ATOM      5  C   UNL     1      23.330  13.381  23.742  1.00  0.00     0.042 A 
ATOM      6  C   UNL     1      24.678  13.592  23.532  1.00  0.00     0.129 A 
ATOM      7  F   UNL     1      25.325  14.561  24.228  1.00  0.00    -0.207 F 
ENDROOT
BRANCH   1   8
ATOM      8  C   UNL     1      26.900  13.029  22.413  1.00  0.00     0.105 C 
ATOM      9  C   UNL     1      27.308  14.428  22.008  1.00  0.00     0.195 C 
ATOM     10  N   UNL     1      27.451  12.054  21.473  1.00  0.00    -0.240 NA
ATOM     11  S   UNL     1      26.612  14.852  20.431  1.00  0.00     0.239 S 
ATOM     12  C   UNL     1      27.350  12.212  20.189  1.00  0.00     0.205 C 
ATOM     13  O   UNL     1      27.510  15.821  19.829  1.00  0.00    -0.206 OA
ATOM     14  N   UNL     1      26.817  13.370  19.580  1.00  0.00    -0.243 N 
ATOM     15  O   UNL     1      25.193  15.009  20.506  1.00  0.00    -0.206 OA
ATOM     16  N   UNL     1      27.782  11.265  19.300  1.00  0.00    -0.369 N 
ATOM     17  C   UNL     1      27.639  12.705  23.715  1.00  0.00     0.044 C 
ATOM     18  C   UNL     1      26.595  13.483  18.125  1.00  0.00     0.167 C 
ATOM     19  H   UNL     1      28.170  10.422  19.629  1.00  0.00     0.159 HD
ATOM     20  H   UNL     1      27.706  11.427  18.332  1.00  0.00     0.159 HD
ENDBRANCH   1   8
BRANCH   3  21
ATOM     21  N   UNL     1      22.753  10.670  21.311  1.00  0.00    -0.321 N 
ATOM     22  C   UNL     1      22.282  10.762  20.013  1.00  0.00     0.274 C 
ATOM     23  O   UNL     1      22.193  11.799  19.369  1.00  0.00    -0.267 OA
ATOM     24  H   UNL     1      22.659   9.789  21.740  1.00  0.00     0.170 HD
BRANCH  22  25
ATOM     25  C   UNL     1      21.901   9.474  19.385  1.00  0.00     0.128 A 
ATOM     26  N   UNL     1      21.223   9.554  18.235  1.00  0.00    -0.248 NA
ATOM     27  C   UNL     1      22.257   8.280  19.986  1.00  0.00     0.037 A 
ATOM     28  C   UNL     1      20.863   8.400  17.649  1.00  0.00     0.151 A 
ATOM     29  C   UNL     1      21.876   7.108  19.355  1.00  0.00     0.043 A 
ATOM     30  C   UNL     1      21.165   7.163  18.172  1.00  0.00     0.141 A 
ATOM     31  F   UNL     1      20.783   6.053  17.519  1.00  0.00    -0.205 F 
ENDBRANCH  22  25
ENDBRANCH   3  21
TORSDOF 3
ENDMDL
MODEL 16
REMARK VINA RESULT:    -6.819      2.010      2.662
REMARK INTER + INTRA:          -8.207
REMARK INTER:                  -8.487
REMARK INTRA:                   0.280
REMARK UNBOUND:                -0.192
REMARK SMILES CN1C(N)=N[C@](C)(c2cc(NC(=O)c3ccc(F)cn3)ccc2F)CS1(=O)=O
REMARK SMILES IDX 8 1 9 2 10 3 21 4 22 5 23 6 24 7 6 8 25 9 5 10 26 11 3 12
REMARK SMILES IDX 27 13 2 14 28 15 4 16 7 17 1 18 11 21 12 22 13 23 14 25
REMARK SMILES IDX 20 26 15 27 19 28 16 29 17 30 18 31
REMARK H PARENT 4 19 4 20 11 24
ROOT
ATOM      1  C   UNL     1      25.618  12.197  21.179  1.00  0.00     0.018 A 
ATOM      2  C   UNL     1      24.938  11.747  22.310  1.00  0.00     0.035 A 
ATOM      3  C   UNL     1      23.583  11.923  22.473  1.00  0.00     0.042 A 
ATOM      4  C   UNL     1      22.838  12.587  21.506  1.00  0.00     0.029 A 
ATOM      5  C   UNL     1      23.496  13.037  20.375  1.00  0.00     0.042 A 
ATOM      6  C   UNL     1      24.851  12.825  20.210  1.00  0.00     0.129 A 
ATOM      7  F   UNL     1      25.467  13.251  19.078  1.00  0.00    -0.207 F 
ENDROOT
BRANCH   1   8
ATOM      8  C   UNL     1      27.116  11.984  21.027  1.00  0.00     0.105 C 
ATOM      9  C   UNL     1      27.880  11.855  22.326  1.00  0.00     0.195 C 
ATOM     10  N   UNL     1      27.732  13.006  20.182  1.00  0.00    -0.240 NA
ATOM     11  S   UNL     1      27.783  13.359  23.263  1.00  0.00     0.239 S 
ATOM     12  C   UNL     1      28.054  14.173  20.649  1.00  0.00     0.205 C 
ATOM     13  O   UNL     1      28.984  13.419  24.076  1.00  0.00    -0.206 OA
ATOM     14  N   UNL     1      27.955  14.529  22.012  1.00  0.00    -0.243 N 
ATOM     15  O   UNL     1      26.463  13.585  23.764  1.00  0.00    -0.206 OA
ATOM     16  N   UNL     1      28.549  15.168  19.849  1.00  0.00    -0.369 N 
ATOM     17  C   UNL     1      27.355  10.695  20.236  1.00  0.00     0.044 C 
ATOM     18  C   UNL     1      28.205  15.897  22.507  1.00  0.00     0.167 C 
ATOM     19  H   UNL     1      28.655  15.015  18.883  1.00  0.00     0.159 HD
ATOM     20  H   UNL     1      28.799  16.036  20.241  1.00  0.00     0.159 HD
ENDBRANCH   1   8
BRANCH   3  21
ATOM     21  N   UNL     1      23.023  11.426  23.657  1.00  0.00    -0.321 N 
ATOM     22  C   UNL     1      22.812  12.093  24.851  1.00  0.00     0.274 C 
ATOM     23  O   UNL     1      23.211  13.222  25.108  1.00  0.00    -0.267 OA
ATOM     24  H   UNL     1      22.743  10.483  23.637  1.00  0.00     0.170 HD
BRANCH  22  25
ATOM     25  C   UNL     1      22.006  11.356  25.854  1.00  0.00     0.128 A 
ATOM     26  N   UNL     1      21.365  10.268  25.416  1.00  0.00    -0.248 NA
ATOM     27  C   UNL     1      21.958  11.801  27.164  1.00  0.00     0.037 A 
ATOM     28  C   UNL     1      20.624   9.586  26.306  1.00  0.00     0.151 A 
ATOM     29  C   UNL     1      21.192  11.074  28.059  1.00  0.00     0.043 A 
ATOM     30  C   UNL     1      20.510   9.953  27.627  1.00  0.00     0.141 A 
ATOM     31  F   UNL     1      19.761   9.210  28.461  1.00  0.00    -0.205 F 
ENDBRANCH  22  25
ENDBRANCH   3  21
TORSDOF 3
ENDMDL
MODEL 17
REMARK VINA RESULT:    -6.779      5.497      6.995
REMARK INTER + INTRA:          -8.160
REMARK INTER:                  -7.753
REMARK INTRA:                  -0.407
REMARK UNBOUND:                -0.192
REMARK SMILES CN1C(N)=N[C@](C)(c2cc(NC(=O)c3ccc(F)cn3)ccc2F)CS1(=O)=O
REMARK SMILES IDX 8 1 9 2 10 3 21 4 22 5 23 6 24 7 6 8 25 9 5 10 26 11 3 12
REMARK SMILES IDX 27 13 2 14 28 15 4 16 7 17 1 18 11 21 12 22 13 23 14 25
REMARK SMILES IDX 20 26 15 27 19 28 16 29 17 30 18 31
REMARK H PARENT 4 19 4 20 11 24
ROOT
ATOM      1  C   UNL     1      22.365  11.061  15.691  1.00  0.00     0.018 A 
ATOM      2  C   UNL     1      22.519  10.916  17.069  1.00  0.00     0.035 A 
ATOM      3  C   UNL     1      21.827  11.691  17.973  1.00  0.00     0.042 A 
ATOM      4  C   UNL     1      20.954  12.677  17.530  1.00  0.00     0.029 A 
ATOM      5  C   UNL     1      20.787  12.833  16.166  1.00  0.00     0.042 A 
ATOM      6  C   UNL     1      21.463  12.026  15.272  1.00  0.00     0.129 A 
ATOM      7  F   UNL     1      21.258  12.180  13.938  1.00  0.00    -0.207 F 
ENDROOT
BRANCH   1   8
ATOM      8  C   UNL     1      23.141  10.187  14.719  1.00  0.00     0.105 C 
ATOM      9  C   UNL     1      22.299   9.486  13.676  1.00  0.00     0.195 C 
ATOM     10  N   UNL     1      23.993   9.220  15.409  1.00  0.00    -0.240 NA
ATOM     11  S   UNL     1      21.181   8.338  14.440  1.00  0.00     0.239 S 
ATOM     12  C   UNL     1      23.521   8.103  15.870  1.00  0.00     0.205 C 
ATOM     13  O   UNL     1      20.926   7.295  13.462  1.00  0.00    -0.206 OA
ATOM     14  N   UNL     1      22.197   7.660  15.654  1.00  0.00    -0.243 N 
ATOM     15  O   UNL     1      20.162   9.010  15.183  1.00  0.00    -0.206 OA
ATOM     16  N   UNL     1      24.287   7.229  16.595  1.00  0.00    -0.369 N 
ATOM     17  C   UNL     1      24.151  11.059  13.968  1.00  0.00     0.044 C 
ATOM     18  C   UNL     1      21.639   6.449  16.288  1.00  0.00     0.167 C 
ATOM     19  H   UNL     1      25.225   7.449  16.798  1.00  0.00     0.159 HD
ATOM     20  H   UNL     1      23.900   6.382  16.913  1.00  0.00     0.159 HD
ENDBRANCH   1   8
BRANCH   3  21
ATOM     21  N   UNL     1      22.076  11.446  19.330  1.00  0.00    -0.321 N 
ATOM     22  C   UNL     1      22.887  12.158  20.195  1.00  0.00     0.274 C 
ATOM     23  O   UNL     1      23.639  13.067  19.868  1.00  0.00    -0.267 OA
ATOM     24  H   UNL     1      21.613  10.668  19.717  1.00  0.00     0.170 HD
BRANCH  22  25
ATOM     25  C   UNL     1      22.779  11.776  21.624  1.00  0.00     0.128 A 
ATOM     26  N   UNL     1      22.791  12.779  22.508  1.00  0.00    -0.248 NA
ATOM     27  C   UNL     1      22.662  10.442  21.976  1.00  0.00     0.037 A 
ATOM     28  C   UNL     1      22.698  12.457  23.809  1.00  0.00     0.151 A 
ATOM     29  C   UNL     1      22.561  10.143  23.323  1.00  0.00     0.043 A 
ATOM     30  C   UNL     1      22.584  11.161  24.257  1.00  0.00     0.141 A 
ATOM     31  F   UNL     1      22.480  10.919  25.575  1.00  0.00    -0.205 F 
ENDBRANCH  22  25
ENDBRANCH   3  21
TORSDOF 3
ENDMDL
MODEL 18
REMARK VINA RESULT:    -6.764      7.959     11.202
REMARK INTER + INTRA:          -8.142
REMARK INTER:                  -7.667
REMARK INTRA:                  -0.475
REMARK UNBOUND:                -0.192
REMARK SMILES CN1C(N)=N[C@](C)(c2cc(NC(=O)c3ccc(F)cn3)ccc2F)CS1(=O)=O
REMARK SMILES IDX 8 1 9 2 10 3 21 4 22 5 23 6 24 7 6 8 25 9 5 10 26 11 3 12
REMARK SMILES IDX 27 13 2 14 28 15 4 16 7 17 1 18 11 21 12 22 13 23 14 25
REMARK SMILES IDX 20 26 15 27 19 28 16 29 17 30 18 31
REMARK H PARENT 4 19 4 20 11 24
ROOT
ATOM      1  C   UNL     1      22.531   8.478  16.382  1.00  0.00     0.018 A 
ATOM      2  C   UNL     1      23.800   8.008  16.044  1.00  0.00     0.035 A 
ATOM      3  C   UNL     1      24.078   6.666  15.918  1.00  0.00     0.042 A 
ATOM      4  C   UNL     1      23.090   5.718  16.149  1.00  0.00     0.029 A 
ATOM      5  C   UNL     1      21.824   6.166  16.482  1.00  0.00     0.042 A 
ATOM      6  C   UNL     1      21.551   7.517  16.574  1.00  0.00     0.129 A 
ATOM      7  F   UNL     1      20.293   7.931  16.874  1.00  0.00    -0.207 F 
ENDROOT
BRANCH   1   8
ATOM      8  C   UNL     1      22.254   9.968  16.512  1.00  0.00     0.105 C 
ATOM      9  C   UNL     1      21.104  10.481  15.673  1.00  0.00     0.195 C 
ATOM     10  N   UNL     1      23.451  10.772  16.268  1.00  0.00    -0.240 NA
ATOM     11  S   UNL     1      21.454  10.288  13.944  1.00  0.00     0.239 S 
ATOM     12  C   UNL     1      23.846  11.058  15.066  1.00  0.00     0.205 C 
ATOM     13  O   UNL     1      20.711  11.327  13.253  1.00  0.00    -0.206 OA
ATOM     14  N   UNL     1      23.116  10.734  13.900  1.00  0.00    -0.243 N 
ATOM     15  O   UNL     1      21.459   8.911  13.557  1.00  0.00    -0.206 OA
ATOM     16  N   UNL     1      25.011  11.734  14.821  1.00  0.00    -0.369 N 
ATOM     17  C   UNL     1      21.920  10.284  17.972  1.00  0.00     0.044 C 
ATOM     18  C   UNL     1      23.637  10.956  12.537  1.00  0.00     0.167 C 
ATOM     19  H   UNL     1      25.590  12.004  15.571  1.00  0.00     0.159 HD
ATOM     20  H   UNL     1      25.270  11.951  13.896  1.00  0.00     0.159 HD
ENDBRANCH   1   8
BRANCH   3  21
ATOM     21  N   UNL     1      25.394   6.328  15.576  1.00  0.00    -0.321 N 
ATOM     22  C   UNL     1      25.911   6.058  14.322  1.00  0.00     0.274 C 
ATOM     23  O   UNL     1      25.251   5.945  13.297  1.00  0.00    -0.267 OA
ATOM     24  H   UNL     1      26.032   6.277  16.324  1.00  0.00     0.170 HD
BRANCH  22  25
ATOM     25  C   UNL     1      27.388   5.939  14.258  1.00  0.00     0.128 A 
ATOM     26  N   UNL     1      27.953   6.192  13.073  1.00  0.00    -0.248 NA
ATOM     27  C   UNL     1      28.103   5.593  15.391  1.00  0.00     0.037 A 
ATOM     28  C   UNL     1      29.289   6.087  12.989  1.00  0.00     0.151 A 
ATOM     29  C   UNL     1      29.479   5.498  15.276  1.00  0.00     0.043 A 
ATOM     30  C   UNL     1      30.085   5.743  14.059  1.00  0.00     0.141 A 
ATOM     31  F   UNL     1      31.418   5.672  13.900  1.00  0.00    -0.205 F 
ENDBRANCH  22  25
ENDBRANCH   3  21
TORSDOF 3
ENDMDL
MODEL 19
REMARK VINA RESULT:    -6.734      5.653      7.952
REMARK INTER + INTRA:          -8.106
REMARK INTER:                  -7.651
REMARK INTRA:                  -0.456
REMARK UNBOUND:                -0.192
REMARK SMILES CN1C(N)=N[C@](C)(c2cc(NC(=O)c3ccc(F)cn3)ccc2F)CS1(=O)=O
REMARK SMILES IDX 8 1 9 2 10 3 21 4 22 5 23 6 24 7 6 8 25 9 5 10 26 11 3 12
REMARK SMILES IDX 27 13 2 14 28 15 4 16 7 17 1 18 11 21 12 22 13 23 14 25
REMARK SMILES IDX 20 26 15 27 19 28 16 29 17 30 18 31
REMARK H PARENT 4 19 4 20 11 24
ROOT
ATOM      1  C   UNL     1      21.547  11.614  16.781  1.00  0.00     0.018 A 
ATOM      2  C   UNL     1      21.521  10.237  17.000  1.00  0.00     0.035 A 
ATOM      3  C   UNL     1      21.326   9.333  15.981  1.00  0.00     0.042 A 
ATOM      4  C   UNL     1      21.123   9.774  14.679  1.00  0.00     0.029 A 
ATOM      5  C   UNL     1      21.150  11.137  14.443  1.00  0.00     0.042 A 
ATOM      6  C   UNL     1      21.378  12.031  15.470  1.00  0.00     0.129 A 
ATOM      7  F   UNL     1      21.429  13.362  15.206  1.00  0.00    -0.207 F 
ENDROOT
BRANCH   1   8
ATOM      8  C   UNL     1      21.768  12.587  17.929  1.00  0.00     0.105 C 
ATOM      9  C   UNL     1      22.915  13.554  17.737  1.00  0.00     0.195 C 
ATOM     10  N   UNL     1      21.899  11.901  19.213  1.00  0.00    -0.240 NA
ATOM     11  S   UNL     1      24.460  12.684  17.648  1.00  0.00     0.239 S 
ATOM     12  C   UNL     1      23.021  11.369  19.590  1.00  0.00     0.205 C 
ATOM     13  O   UNL     1      25.480  13.602  18.124  1.00  0.00    -0.206 OA
ATOM     14  N   UNL     1      24.231  11.497  18.873  1.00  0.00    -0.243 N 
ATOM     15  O   UNL     1      24.566  11.919  16.445  1.00  0.00    -0.206 OA
ATOM     16  N   UNL     1      23.134  10.648  20.749  1.00  0.00    -0.369 N 
ATOM     17  C   UNL     1      20.501  13.426  18.116  1.00  0.00     0.044 C 
ATOM     18  C   UNL     1      25.468  10.784  19.249  1.00  0.00     0.167 C 
ATOM     19  H   UNL     1      22.344  10.504  21.318  1.00  0.00     0.159 HD
ATOM     20  H   UNL     1      24.006  10.274  21.012  1.00  0.00     0.159 HD
ENDBRANCH   1   8
BRANCH   3  21
ATOM     21  N   UNL     1      21.319   7.978  16.336  1.00  0.00    -0.321 N 
ATOM     22  C   UNL     1      22.372   7.081  16.317  1.00  0.00     0.274 C 
ATOM     23  O   UNL     1      23.481   7.307  15.851  1.00  0.00    -0.267 OA
ATOM     24  H   UNL     1      20.454   7.618  16.639  1.00  0.00     0.170 HD
BRANCH  22  25
ATOM     25  C   UNL     1      22.099   5.769  16.953  1.00  0.00     0.128 A 
ATOM     26  N   UNL     1      20.998   5.695  17.708  1.00  0.00    -0.248 NA
ATOM     27  C   UNL     1      22.958   4.706  16.740  1.00  0.00     0.037 A 
ATOM     28  C   UNL     1      20.732   4.518  18.298  1.00  0.00     0.151 A 
ATOM     29  C   UNL     1      22.654   3.505  17.356  1.00  0.00     0.043 A 
ATOM     30  C   UNL     1      21.529   3.405  18.152  1.00  0.00     0.141 A 
ATOM     31  F   UNL     1      21.189   2.258  18.762  1.00  0.00    -0.205 F 
ENDBRANCH  22  25
ENDBRANCH   3  21
TORSDOF 3
ENDMDL
MODEL 20
REMARK VINA RESULT:    -6.672      3.373      6.108
REMARK INTER + INTRA:          -8.034
REMARK INTER:                  -7.744
REMARK INTRA:                  -0.290
REMARK UNBOUND:                -0.192
REMARK SMILES CN1C(N)=N[C@](C)(c2cc(NC(=O)c3ccc(F)cn3)ccc2F)CS1(=O)=O
REMARK SMILES IDX 8 1 9 2 10 3 21 4 22 5 23 6 24 7 6 8 25 9 5 10 26 11 3 12
REMARK SMILES IDX 27 13 2 14 28 15 4 16 7 17 1 18 11 21 12 22 13 23 14 25
REMARK SMILES IDX 20 26 15 27 19 28 16 29 17 30 18 31
REMARK H PARENT 4 19 4 20 11 24
ROOT
ATOM      1  C   UNL     1      24.039  12.523  21.609  1.00  0.00     0.018 A 
ATOM      2  C   UNL     1      25.120  13.184  22.190  1.00  0.00     0.035 A 
ATOM      3  C   UNL     1      25.412  13.081  23.531  1.00  0.00     0.042 A 
ATOM      4  C   UNL     1      24.609  12.318  24.369  1.00  0.00     0.029 A 
ATOM      5  C   UNL     1      23.532  11.653  23.809  1.00  0.00     0.042 A 
ATOM      6  C   UNL     1      23.271  11.739  22.456  1.00  0.00     0.129 A 
ATOM      7  F   UNL     1      22.225  11.053  21.927  1.00  0.00    -0.207 F 
ENDROOT
BRANCH   1   8
ATOM      8  C   UNL     1      23.744  12.655  20.123  1.00  0.00     0.105 C 
ATOM      9  C   UNL     1      23.872  11.374  19.329  1.00  0.00     0.195 C 
ATOM     10  N   UNL     1      24.536  13.714  19.498  1.00  0.00    -0.240 NA
ATOM     11  S   UNL     1      25.546  10.785  19.354  1.00  0.00     0.239 S 
ATOM     12  C   UNL     1      25.764  13.519  19.129  1.00  0.00     0.205 C 
ATOM     13  O   UNL     1      25.737  10.028  18.129  1.00  0.00    -0.206 OA
ATOM     14  N   UNL     1      26.410  12.264  19.180  1.00  0.00    -0.243 N 
ATOM     15  O   UNL     1      25.922  10.320  20.652  1.00  0.00    -0.206 OA
ATOM     16  N   UNL     1      26.543  14.525  18.624  1.00  0.00    -0.369 N 
ATOM     17  C   UNL     1      22.307  13.151  19.946  1.00  0.00     0.044 C 
ATOM     18  C   UNL     1      27.843  12.083  18.873  1.00  0.00     0.167 C 
ATOM     19  H   UNL     1      26.181  15.437  18.549  1.00  0.00     0.159 HD
ATOM     20  H   UNL     1      27.466  14.336  18.337  1.00  0.00     0.159 HD
ENDBRANCH   1   8
BRANCH   3  21
ATOM     21  N   UNL     1      26.526  13.797  23.988  1.00  0.00    -0.321 N 
ATOM     22  C   UNL     1      27.848  13.393  24.027  1.00  0.00     0.274 C 
ATOM     23  O   UNL     1      28.247  12.262  23.778  1.00  0.00    -0.267 OA
ATOM     24  H   UNL     1      26.344  14.705  24.324  1.00  0.00     0.170 HD
BRANCH  22  25
ATOM     25  C   UNL     1      28.826  14.454  24.368  1.00  0.00     0.128 A 
ATOM     26  N   UNL     1      29.938  14.497  23.627  1.00  0.00    -0.248 NA
ATOM     27  C   UNL     1      28.555  15.338  25.399  1.00  0.00     0.037 A 
ATOM     28  C   UNL     1      30.840  15.448  23.921  1.00  0.00     0.151 A 
ATOM     29  C   UNL     1      29.500  16.310  25.673  1.00  0.00     0.043 A 
ATOM     30  C   UNL     1      30.663  16.368  24.929  1.00  0.00     0.141 A 
ATOM     31  F   UNL     1      31.606  17.299  25.153  1.00  0.00    -0.205 F 
ENDBRANCH  22  25
ENDBRANCH   3  21
TORSDOF 3
ENDMDL
