MODEL 1
REMARK VINA RESULT:    -9.203      0.000      0.000
REMARK INTER + INTRA:         -15.314
REMARK INTER:                 -13.508
REMARK INTRA:                  -1.806
REMARK UNBOUND:                -1.806
REMARK SMILES CN1CCN(CCOc2cc3c(c(OC4CCOCC4)c2)C(Nc2c(Cl)ccc4c2OCO4)N=CN3)CC1
REMARK SMILES IDX 8 1 7 2 6 3 5 4 2 5 3 6 38 7 4 8 37 9 1 10 9 11 21 12 10 13
REMARK SMILES IDX 13 14 11 15 12 16 36 17 22 18 35 19 34 20 14 22 15 23 16 24
REMARK SMILES IDX 20 25 17 26 19 27 18 28 23 29 24 31 30 32 25 33 31 34 29 35
REMARK SMILES IDX 27 36 32 37 33 38 28 39 26 40
REMARK H PARENT 36 21 23 30
ROOT
ATOM      1  O   UNL     1      -9.330  16.263  -6.344  1.00  0.00    -0.492 OA
ENDROOT
BRANCH   1   2
ATOM      2  C   UNL     1      -7.962  15.962  -6.485  1.00  0.00     0.245 C 
BRANCH   2   3
ATOM      3  C   UNL     1      -7.484  14.911  -5.468  1.00  0.00     0.126 C 
BRANCH   3   4
ATOM      4  N   UNL     1      -8.198  14.871  -4.197  1.00  0.00    -0.297 NA
ATOM      5  N   UNL     1      -8.475  13.835  -1.477  1.00  0.00    -0.304 NA
ATOM      6  C   UNL     1      -9.308  13.354  -2.565  1.00  0.00     0.099 C 
ATOM      7  C   UNL     1      -8.077  15.207  -1.740  1.00  0.00     0.099 C 
ATOM      8  C   UNL     1      -8.608  13.497  -3.925  1.00  0.00     0.100 C 
ATOM      9  C   UNL     1      -7.357  15.320  -3.097  1.00  0.00     0.100 C 
ATOM     10  C   UNL     1      -9.191  13.741  -0.217  1.00  0.00     0.105 C 
ENDBRANCH   3   4
ENDBRANCH   2   3
ENDBRANCH   1   2
BRANCH   1  11
ATOM     11  C   UNL     1     -10.113  16.016  -7.445  1.00  0.00     0.125 A 
ATOM     12  C   UNL     1      -9.808  15.049  -8.330  1.00  0.00     0.093 A 
ATOM     13  C   UNL     1     -11.232  16.703  -7.704  1.00  0.00     0.073 A 
ATOM     14  C   UNL     1     -10.538  14.739  -9.426  1.00  0.00     0.132 A 
ATOM     15  C   UNL     1     -11.984  16.437  -8.781  1.00  0.00     0.054 A 
ATOM     16  C   UNL     1     -11.669  15.456  -9.673  1.00  0.00     0.062 A 
ATOM     17  N   UNL     1     -13.014  17.166  -8.904  1.00  0.00    -0.346 N 
ATOM     18  C   UNL     1     -12.520  15.296 -10.728  1.00  0.00     0.236 C 
ATOM     19  C   UNL     1     -13.741  16.942  -9.905  1.00  0.00     0.193 C 
ATOM     20  N   UNL     1     -13.538  16.064 -10.788  1.00  0.00    -0.246 NA
ATOM     21  H   UNL     1     -13.232  17.870  -8.250  1.00  0.00     0.167 HD
BRANCH  14  22
ATOM     22  O   UNL     1     -10.114  13.734 -10.276  1.00  0.00    -0.490 OA
BRANCH  22  23
ATOM     23  C   UNL     1     -10.030  12.386  -9.882  1.00  0.00     0.178 C 
ATOM     24  C   UNL     1     -11.055  11.997  -8.816  1.00  0.00     0.073 C 
ATOM     25  C   UNL     1     -10.288  11.565 -11.157  1.00  0.00     0.073 C 
ATOM     26  C   UNL     1     -11.170  10.482  -8.690  1.00  0.00     0.164 C 
ATOM     27  C   UNL     1     -10.447  10.081 -10.843  1.00  0.00     0.164 C 
ATOM     28  O   UNL     1     -11.495   9.900  -9.929  1.00  0.00    -0.381 OA
ENDBRANCH  22  23
ENDBRANCH  14  22
BRANCH  18  29
ATOM     29  N   UNL     1     -12.555  14.497 -11.729  1.00  0.00    -0.355 N 
ATOM     30  H   UNL     1     -11.626  14.027 -11.894  1.00  0.00     0.163 HD
BRANCH  29  31
ATOM     31  C   UNL     1     -13.408  14.102 -12.598  1.00  0.00     0.102 A 
ATOM     32  C   UNL     1     -13.668  14.742 -13.761  1.00  0.00     0.190 A 
ATOM     33  C   UNL     1     -14.126  12.964 -12.378  1.00  0.00     0.068 A 
ATOM     34  O   UNL     1     -13.152  15.779 -14.184  1.00  0.00    -0.451 OA
ATOM     35  C   UNL     1     -14.578  14.302 -14.639  1.00  0.00     0.168 A 
ATOM     36  C   UNL     1     -15.041  12.530 -13.267  1.00  0.00     0.027 A 
ATOM     37  C   UNL     1     -13.683  16.057 -15.479  1.00  0.00     0.468 C 
ATOM     38  O   UNL     1     -14.657  15.031 -15.627  1.00  0.00    -0.454 OA
ATOM     39  C   UNL     1     -15.279  13.189 -14.409  1.00  0.00     0.052 A 
ATOM     40  Cl  UNL     1     -13.969  11.974 -10.955  1.00  0.00    -0.082 Cl
ENDBRANCH  29  31
ENDBRANCH  18  29
ENDBRANCH   1  11
TORSDOF 8
ENDMDL
MODEL 2
REMARK VINA RESULT:    -9.085      1.545      2.007
REMARK INTER + INTRA:         -15.140
REMARK INTER:                 -13.201
REMARK INTRA:                  -1.938
REMARK UNBOUND:                -1.806
REMARK SMILES CN1CCN(CCOc2cc3c(c(OC4CCOCC4)c2)C(Nc2c(Cl)ccc4c2OCO4)N=CN3)CC1
REMARK SMILES IDX 8 1 7 2 6 3 5 4 2 5 3 6 38 7 4 8 37 9 1 10 9 11 21 12 10 13
REMARK SMILES IDX 13 14 11 15 12 16 36 17 22 18 35 19 34 20 14 22 15 23 16 24
REMARK SMILES IDX 20 25 17 26 19 27 18 28 23 29 24 31 30 32 25 33 31 34 29 35
REMARK SMILES IDX 27 36 32 37 33 38 28 39 26 40
REMARK H PARENT 36 21 23 30
ROOT
ATOM      1  O   UNL     1      -9.483  16.378  -6.255  1.00  0.00    -0.492 OA
ENDROOT
BRANCH   1   2
ATOM      2  C   UNL     1      -8.084  16.336  -6.401  1.00  0.00     0.245 C 
BRANCH   2   3
ATOM      3  C   UNL     1      -7.410  15.443  -5.344  1.00  0.00     0.126 C 
BRANCH   3   4
ATOM      4  N   UNL     1      -8.152  15.236  -4.105  1.00  0.00    -0.297 NA
ATOM      5  N   UNL     1      -8.428  13.928  -1.506  1.00  0.00    -0.304 NA
ATOM      6  C   UNL     1      -9.200  13.501  -2.660  1.00  0.00     0.099 C 
ATOM      7  C   UNL     1      -8.116  15.341  -1.625  1.00  0.00     0.099 C 
ATOM      8  C   UNL     1      -8.477  13.818  -3.977  1.00  0.00     0.100 C 
ATOM      9  C   UNL     1      -7.371  15.630  -2.942  1.00  0.00     0.100 C 
ATOM     10  C   UNL     1      -9.169  13.668  -0.283  1.00  0.00     0.105 C 
ENDBRANCH   3   4
ENDBRANCH   2   3
ENDBRANCH   1   2
BRANCH   1  11
ATOM     11  C   UNL     1     -10.211  16.116  -7.390  1.00  0.00     0.125 A 
ATOM     12  C   UNL     1      -9.848  15.155  -8.259  1.00  0.00     0.093 A 
ATOM     13  C   UNL     1     -11.329  16.782  -7.700  1.00  0.00     0.073 A 
ATOM     14  C   UNL     1     -10.521  14.831  -9.387  1.00  0.00     0.132 A 
ATOM     15  C   UNL     1     -12.026  16.501  -8.811  1.00  0.00     0.054 A 
ATOM     16  C   UNL     1     -11.653  15.527  -9.686  1.00  0.00     0.062 A 
ATOM     17  N   UNL     1     -13.062  17.212  -8.981  1.00  0.00    -0.346 N 
ATOM     18  C   UNL     1     -12.452  15.350 -10.778  1.00  0.00     0.236 C 
ATOM     19  C   UNL     1     -13.739  16.974 -10.014  1.00  0.00     0.193 C 
ATOM     20  N   UNL     1     -13.479  16.099 -10.886  1.00  0.00    -0.246 NA
ATOM     21  H   UNL     1     -13.323  17.912  -8.339  1.00  0.00     0.167 HD
BRANCH  14  22
ATOM     22  O   UNL     1     -10.040  13.833 -10.214  1.00  0.00    -0.490 OA
BRANCH  22  23
ATOM     23  C   UNL     1      -9.887  12.499  -9.794  1.00  0.00     0.178 C 
ATOM     24  C   UNL     1     -10.969  12.040  -8.816  1.00  0.00     0.073 C 
ATOM     25  C   UNL     1      -9.965  11.650 -11.073  1.00  0.00     0.073 C 
ATOM     26  C   UNL     1     -10.977  10.521  -8.677  1.00  0.00     0.164 C 
ATOM     27  C   UNL     1     -10.035  10.161 -10.751  1.00  0.00     0.164 C 
ATOM     28  O   UNL     1     -11.143   9.904  -9.931  1.00  0.00    -0.381 OA
ENDBRANCH  22  23
ENDBRANCH  14  22
BRANCH  18  29
ATOM     29  N   UNL     1     -12.426  14.549 -11.779  1.00  0.00    -0.355 N 
ATOM     30  H   UNL     1     -11.454  14.435 -12.170  1.00  0.00     0.163 HD
BRANCH  29  31
ATOM     31  C   UNL     1     -13.256  13.841 -12.448  1.00  0.00     0.102 A 
ATOM     32  C   UNL     1     -13.777  12.668 -12.022  1.00  0.00     0.190 A 
ATOM     33  C   UNL     1     -13.668  14.257 -13.679  1.00  0.00     0.068 A 
ATOM     34  O   UNL     1     -13.564  12.090 -10.954  1.00  0.00    -0.451 OA
ATOM     35  C   UNL     1     -14.635  11.950 -12.759  1.00  0.00     0.168 A 
ATOM     36  C   UNL     1     -14.530  13.527 -14.414  1.00  0.00     0.027 A 
ATOM     37  C   UNL     1     -14.374  10.917 -10.901  1.00  0.00     0.468 C 
ATOM     38  O   UNL     1     -14.986  10.919 -12.186  1.00  0.00    -0.454 OA
ATOM     39  C   UNL     1     -15.027  12.366 -13.966  1.00  0.00     0.052 A 
ATOM     40  Cl  UNL     1     -13.132  15.729 -14.438  1.00  0.00    -0.082 Cl
ENDBRANCH  29  31
ENDBRANCH  18  29
ENDBRANCH   1  11
TORSDOF 8
ENDMDL
MODEL 3
REMARK VINA RESULT:    -8.979      0.943      1.090
REMARK INTER + INTRA:         -14.984
REMARK INTER:                 -13.368
REMARK INTRA:                  -1.617
REMARK UNBOUND:                -1.806
REMARK SMILES CN1CCN(CCOc2cc3c(c(OC4CCOCC4)c2)C(Nc2c(Cl)ccc4c2OCO4)N=CN3)CC1
REMARK SMILES IDX 8 1 7 2 6 3 5 4 2 5 3 6 38 7 4 8 37 9 1 10 9 11 21 12 10 13
REMARK SMILES IDX 13 14 11 15 12 16 36 17 22 18 35 19 34 20 14 22 15 23 16 24
REMARK SMILES IDX 20 25 17 26 19 27 18 28 23 29 24 31 30 32 25 33 31 34 29 35
REMARK SMILES IDX 27 36 32 37 33 38 28 39 26 40
REMARK H PARENT 36 21 23 30
ROOT
ATOM      1  O   UNL     1      -9.189  15.938  -6.310  1.00  0.00    -0.492 OA
ENDROOT
BRANCH   1   2
ATOM      2  C   UNL     1      -9.280  17.190  -5.675  1.00  0.00     0.245 C 
BRANCH   2   3
ATOM      3  C   UNL     1      -8.324  17.312  -4.476  1.00  0.00     0.126 C 
BRANCH   3   4
ATOM      4  N   UNL     1      -8.764  16.687  -3.233  1.00  0.00    -0.297 NA
ATOM      5  N   UNL     1      -8.173  15.695  -0.548  1.00  0.00    -0.304 NA
ATOM      6  C   UNL     1      -8.330  14.794  -1.676  1.00  0.00     0.099 C 
ATOM      7  C   UNL     1      -8.965  16.892  -0.767  1.00  0.00     0.099 C 
ATOM      8  C   UNL     1      -7.978  15.478  -3.005  1.00  0.00     0.100 C 
ATOM      9  C   UNL     1      -8.577  17.573  -2.094  1.00  0.00     0.100 C 
ATOM     10  C   UNL     1      -8.572  15.034   0.682  1.00  0.00     0.105 C 
ENDBRANCH   3   4
ENDBRANCH   2   3
ENDBRANCH   1   2
BRANCH   1  11
ATOM     11  C   UNL     1      -9.985  15.768  -7.416  1.00  0.00     0.125 A 
ATOM     12  C   UNL     1      -9.737  14.810  -8.329  1.00  0.00     0.093 A 
ATOM     13  C   UNL     1     -11.061  16.527  -7.654  1.00  0.00     0.073 A 
ATOM     14  C   UNL     1     -10.483  14.575  -9.432  1.00  0.00     0.132 A 
ATOM     15  C   UNL     1     -11.828  16.335  -8.738  1.00  0.00     0.054 A 
ATOM     16  C   UNL     1     -11.570  15.364  -9.658  1.00  0.00     0.062 A 
ATOM     17  N   UNL     1     -12.812  17.127  -8.838  1.00  0.00    -0.346 N 
ATOM     18  C   UNL     1     -12.429  15.283 -10.715  1.00  0.00     0.236 C 
ATOM     19  C   UNL     1     -13.552  16.975  -9.845  1.00  0.00     0.193 C 
ATOM     20  N   UNL     1     -13.400  16.111 -10.752  1.00  0.00    -0.246 NA
ATOM     21  H   UNL     1     -12.989  17.824  -8.165  1.00  0.00     0.167 HD
BRANCH  14  22
ATOM     22  O   UNL     1     -10.119  13.571 -10.310  1.00  0.00    -0.490 OA
BRANCH  22  23
ATOM     23  C   UNL     1     -10.034  12.218  -9.932  1.00  0.00     0.178 C 
ATOM     24  C   UNL     1     -11.057  11.817  -8.869  1.00  0.00     0.073 C 
ATOM     25  C   UNL     1     -10.291  11.411 -11.215  1.00  0.00     0.073 C 
ATOM     26  C   UNL     1     -11.171  10.300  -8.760  1.00  0.00     0.164 C 
ATOM     27  C   UNL     1     -10.448   9.924 -10.917  1.00  0.00     0.164 C 
ATOM     28  O   UNL     1     -11.495   9.731 -10.005  1.00  0.00    -0.381 OA
ENDBRANCH  22  23
ENDBRANCH  14  22
BRANCH  18  29
ATOM     29  N   UNL     1     -12.511  14.516 -11.738  1.00  0.00    -0.355 N 
ATOM     30  H   UNL     1     -11.590  14.054 -11.962  1.00  0.00     0.163 HD
BRANCH  29  31
ATOM     31  C   UNL     1     -13.404  14.146 -12.578  1.00  0.00     0.102 A 
ATOM     32  C   UNL     1     -13.695  14.802 -13.724  1.00  0.00     0.190 A 
ATOM     33  C   UNL     1     -14.136  13.021 -12.340  1.00  0.00     0.068 A 
ATOM     34  O   UNL     1     -13.173  15.832 -14.158  1.00  0.00    -0.451 OA
ATOM     35  C   UNL     1     -14.645  14.389 -14.571  1.00  0.00     0.168 A 
ATOM     36  C   UNL     1     -15.093  12.614 -13.197  1.00  0.00     0.027 A 
ATOM     37  C   UNL     1     -13.747  16.133 -15.429  1.00  0.00     0.468 C 
ATOM     38  O   UNL     1     -14.747  15.128 -15.549  1.00  0.00    -0.454 OA
ATOM     39  C   UNL     1     -15.360  13.288 -14.324  1.00  0.00     0.052 A 
ATOM     40  Cl  UNL     1     -13.946  12.015 -10.932  1.00  0.00    -0.082 Cl
ENDBRANCH  29  31
ENDBRANCH  18  29
ENDBRANCH   1  11
TORSDOF 8
ENDMDL
MODEL 4
REMARK VINA RESULT:    -8.898      1.733      2.543
REMARK INTER + INTRA:         -14.865
REMARK INTER:                 -12.888
REMARK INTRA:                  -1.977
REMARK UNBOUND:                -1.806
REMARK SMILES CN1CCN(CCOc2cc3c(c(OC4CCOCC4)c2)C(Nc2c(Cl)ccc4c2OCO4)N=CN3)CC1
REMARK SMILES IDX 8 1 7 2 6 3 5 4 2 5 3 6 38 7 4 8 37 9 1 10 9 11 21 12 10 13
REMARK SMILES IDX 13 14 11 15 12 16 36 17 22 18 35 19 34 20 14 22 15 23 16 24
REMARK SMILES IDX 20 25 17 26 19 27 18 28 23 29 24 31 30 32 25 33 31 34 29 35
REMARK SMILES IDX 27 36 32 37 33 38 28 39 26 40
REMARK H PARENT 36 21 23 30
ROOT
ATOM      1  O   UNL     1     -10.131  12.693  -6.460  1.00  0.00    -0.492 OA
ENDROOT
BRANCH   1   2
ATOM      2  C   UNL     1      -8.788  12.277  -6.527  1.00  0.00     0.245 C 
BRANCH   2   3
ATOM      3  C   UNL     1      -7.849  13.193  -5.725  1.00  0.00     0.126 C 
BRANCH   3   4
ATOM      4  N   UNL     1      -8.332  14.545  -5.462  1.00  0.00    -0.297 NA
ATOM      5  N   UNL     1      -7.800  17.349  -4.832  1.00  0.00    -0.304 NA
ATOM      6  C   UNL     1      -8.267  16.416  -3.823  1.00  0.00     0.099 C 
ATOM      7  C   UNL     1      -8.280  16.933  -6.138  1.00  0.00     0.099 C 
ATOM      8  C   UNL     1      -7.860  14.972  -4.149  1.00  0.00     0.100 C 
ATOM      9  C   UNL     1      -7.838  15.491  -6.452  1.00  0.00     0.100 C 
ATOM     10  C   UNL     1      -8.255  18.693  -4.523  1.00  0.00     0.105 C 
ENDBRANCH   3   4
ENDBRANCH   2   3
ENDBRANCH   1   2
BRANCH   1  11
ATOM     11  C   UNL     1     -10.685  13.121  -7.641  1.00  0.00     0.125 A 
ATOM     12  C   UNL     1     -10.794  12.308  -8.709  1.00  0.00     0.093 A 
ATOM     13  C   UNL     1     -11.163  14.359  -7.809  1.00  0.00     0.073 A 
ATOM     14  C   UNL     1     -11.340  12.653  -9.897  1.00  0.00     0.132 A 
ATOM     15  C   UNL     1     -11.707  14.749  -8.970  1.00  0.00     0.054 A 
ATOM     16  C   UNL     1     -11.814  13.921 -10.046  1.00  0.00     0.062 A 
ATOM     17  N   UNL     1     -12.116  15.949  -8.989  1.00  0.00    -0.346 N 
ATOM     18  C   UNL     1     -12.385  14.449 -11.167  1.00  0.00     0.236 C 
ATOM     19  C   UNL     1     -12.632  16.347 -10.065  1.00  0.00     0.193 C 
ATOM     20  N   UNL     1     -12.776  15.664 -11.116  1.00  0.00    -0.246 NA
ATOM     21  H   UNL     1     -12.035  16.537  -8.203  1.00  0.00     0.167 HD
BRANCH  14  22
ATOM     22  O   UNL     1     -11.381  11.734 -10.930  1.00  0.00    -0.490 OA
BRANCH  22  23
ATOM     23  C   UNL     1     -10.856  10.434 -10.817  1.00  0.00     0.178 C 
ATOM     24  C   UNL     1     -11.924   9.341 -10.839  1.00  0.00     0.073 C 
ATOM     25  C   UNL     1      -9.924  10.257 -12.028  1.00  0.00     0.073 C 
ATOM     26  C   UNL     1     -11.303   7.969 -11.080  1.00  0.00     0.164 C 
ATOM     27  C   UNL     1      -9.450   8.814 -12.160  1.00  0.00     0.164 C 
ATOM     28  O   UNL     1     -10.556   7.960 -12.272  1.00  0.00    -0.381 OA
ENDBRANCH  22  23
ENDBRANCH  14  22
BRANCH  18  29
ATOM     29  N   UNL     1     -12.655  13.985 -12.332  1.00  0.00    -0.355 N 
ATOM     30  H   UNL     1     -11.812  13.550 -12.790  1.00  0.00     0.163 HD
BRANCH  29  31
ATOM     31  C   UNL     1     -13.670  13.900 -13.106  1.00  0.00     0.102 A 
ATOM     32  C   UNL     1     -13.884  14.697 -14.178  1.00  0.00     0.190 A 
ATOM     33  C   UNL     1     -14.627  12.957 -12.873  1.00  0.00     0.068 A 
ATOM     34  O   UNL     1     -13.169  15.612 -14.593  1.00  0.00    -0.451 OA
ATOM     35  C   UNL     1     -14.966  14.583 -14.958  1.00  0.00     0.168 A 
ATOM     36  C   UNL     1     -15.714  12.851 -13.661  1.00  0.00     0.027 A 
ATOM     37  C   UNL     1     -13.749  16.138 -15.786  1.00  0.00     0.468 C 
ATOM     38  O   UNL     1     -14.964  15.403 -15.875  1.00  0.00    -0.454 OA
ATOM     39  C   UNL     1     -15.900  13.659 -14.715  1.00  0.00     0.052 A 
ATOM     40  Cl  UNL     1     -14.573  11.823 -11.553  1.00  0.00    -0.082 Cl
ENDBRANCH  29  31
ENDBRANCH  18  29
ENDBRANCH   1  11
TORSDOF 8
ENDMDL
MODEL 5
REMARK VINA RESULT:    -8.809      1.876      2.580
REMARK INTER + INTRA:         -14.736
REMARK INTER:                 -13.067
REMARK INTRA:                  -1.669
REMARK UNBOUND:                -1.806
REMARK SMILES CN1CCN(CCOc2cc3c(c(OC4CCOCC4)c2)C(Nc2c(Cl)ccc4c2OCO4)N=CN3)CC1
REMARK SMILES IDX 8 1 7 2 6 3 5 4 2 5 3 6 38 7 4 8 37 9 1 10 9 11 21 12 10 13
REMARK SMILES IDX 13 14 11 15 12 16 36 17 22 18 35 19 34 20 14 22 15 23 16 24
REMARK SMILES IDX 20 25 17 26 19 27 18 28 23 29 24 31 30 32 25 33 31 34 29 35
REMARK SMILES IDX 27 36 32 37 33 38 28 39 26 40
REMARK H PARENT 36 21 23 30
ROOT
ATOM      1  O   UNL     1      -9.134  15.809  -6.291  1.00  0.00    -0.492 OA
ENDROOT
BRANCH   1   2
ATOM      2  C   UNL     1      -7.796  16.169  -6.538  1.00  0.00     0.245 C 
BRANCH   2   3
ATOM      3  C   UNL     1      -6.958  16.237  -5.250  1.00  0.00     0.126 C 
BRANCH   3   4
ATOM      4  N   UNL     1      -6.832  17.552  -4.631  1.00  0.00    -0.297 NA
ATOM      5  N   UNL     1      -7.838  20.264  -4.213  1.00  0.00    -0.304 NA
ATOM      6  C   UNL     1      -6.725  19.993  -5.106  1.00  0.00     0.099 C 
ATOM      7  C   UNL     1      -7.874  19.262  -3.164  1.00  0.00     0.099 C 
ATOM      8  C   UNL     1      -6.788  18.569  -5.677  1.00  0.00     0.100 C 
ATOM      9  C   UNL     1      -7.961  17.844  -3.761  1.00  0.00     0.100 C 
ATOM     10  C   UNL     1      -7.713  21.596  -3.646  1.00  0.00     0.105 C 
ENDBRANCH   3   4
ENDBRANCH   2   3
ENDBRANCH   1   2
BRANCH   1  11
ATOM     11  C   UNL     1      -9.930  15.662  -7.401  1.00  0.00     0.125 A 
ATOM     12  C   UNL     1      -9.691  14.711  -8.323  1.00  0.00     0.093 A 
ATOM     13  C   UNL     1     -10.995  16.437  -7.633  1.00  0.00     0.073 A 
ATOM     14  C   UNL     1     -10.438  14.498  -9.431  1.00  0.00     0.132 A 
ATOM     15  C   UNL     1     -11.760  16.269  -8.721  1.00  0.00     0.054 A 
ATOM     16  C   UNL     1     -11.513  15.304  -9.651  1.00  0.00     0.062 A 
ATOM     17  N   UNL     1     -12.734  17.074  -8.816  1.00  0.00    -0.346 N 
ATOM     18  C   UNL     1     -12.370  15.246 -10.711  1.00  0.00     0.236 C 
ATOM     19  C   UNL     1     -13.473  16.943  -9.826  1.00  0.00     0.193 C 
ATOM     20  N   UNL     1     -13.329  16.087 -10.742  1.00  0.00    -0.246 NA
ATOM     21  H   UNL     1     -12.904  17.766  -8.135  1.00  0.00     0.167 HD
BRANCH  14  22
ATOM     22  O   UNL     1     -10.084  13.499 -10.319  1.00  0.00    -0.490 OA
BRANCH  22  23
ATOM     23  C   UNL     1      -9.995  12.144  -9.949  1.00  0.00     0.178 C 
ATOM     24  C   UNL     1     -11.040  11.725  -8.914  1.00  0.00     0.073 C 
ATOM     25  C   UNL     1     -10.215  11.345 -11.244  1.00  0.00     0.073 C 
ATOM     26  C   UNL     1     -11.143  10.206  -8.819  1.00  0.00     0.164 C 
ATOM     27  C   UNL     1     -10.366   9.854 -10.962  1.00  0.00     0.164 C 
ATOM     28  O   UNL     1     -11.432   9.645 -10.076  1.00  0.00    -0.381 OA
ENDBRANCH  22  23
ENDBRANCH  14  22
BRANCH  18  29
ATOM     29  N   UNL     1     -12.458  14.491 -11.743  1.00  0.00    -0.355 N 
ATOM     30  H   UNL     1     -11.540  14.030 -11.977  1.00  0.00     0.163 HD
BRANCH  29  31
ATOM     31  C   UNL     1     -13.357  14.133 -12.582  1.00  0.00     0.102 A 
ATOM     32  C   UNL     1     -13.645  14.798 -13.724  1.00  0.00     0.190 A 
ATOM     33  C   UNL     1     -14.098  13.013 -12.349  1.00  0.00     0.068 A 
ATOM     34  O   UNL     1     -13.116  15.826 -14.154  1.00  0.00    -0.451 OA
ATOM     35  C   UNL     1     -14.601  14.397 -14.571  1.00  0.00     0.168 A 
ATOM     36  C   UNL     1     -15.060  12.619 -13.206  1.00  0.00     0.027 A 
ATOM     37  C   UNL     1     -13.689  16.138 -15.422  1.00  0.00     0.468 C 
ATOM     38  O   UNL     1     -14.699  15.143 -15.545  1.00  0.00    -0.454 OA
ATOM     39  C   UNL     1     -15.325  13.301 -14.329  1.00  0.00     0.052 A 
ATOM     40  Cl  UNL     1     -13.913  11.999 -10.947  1.00  0.00    -0.082 Cl
ENDBRANCH  29  31
ENDBRANCH  18  29
ENDBRANCH   1  11
TORSDOF 8
ENDMDL
MODEL 6
REMARK VINA RESULT:    -8.791      2.489      3.492
REMARK INTER + INTRA:         -14.709
REMARK INTER:                 -12.518
REMARK INTRA:                  -2.191
REMARK UNBOUND:                -1.806
REMARK SMILES CN1CCN(CCOc2cc3c(c(OC4CCOCC4)c2)C(Nc2c(Cl)ccc4c2OCO4)N=CN3)CC1
REMARK SMILES IDX 8 1 7 2 6 3 5 4 2 5 3 6 38 7 4 8 37 9 1 10 9 11 21 12 10 13
REMARK SMILES IDX 13 14 11 15 12 16 36 17 22 18 35 19 34 20 14 22 15 23 16 24
REMARK SMILES IDX 20 25 17 26 19 27 18 28 23 29 24 31 30 32 25 33 31 34 29 35
REMARK SMILES IDX 27 36 32 37 33 38 28 39 26 40
REMARK H PARENT 36 21 23 30
ROOT
ATOM      1  O   UNL     1      -9.387  15.626  -6.455  1.00  0.00    -0.492 OA
ENDROOT
BRANCH   1   2
ATOM      2  C   UNL     1      -8.062  15.180  -6.618  1.00  0.00     0.245 C 
BRANCH   2   3
ATOM      3  C   UNL     1      -7.805  13.836  -5.915  1.00  0.00     0.126 C 
BRANCH   3   4
ATOM      4  N   UNL     1      -7.862  12.645  -6.755  1.00  0.00    -0.297 NA
ATOM      5  N   UNL     1      -7.925   9.735  -7.026  1.00  0.00    -0.304 NA
ATOM      6  C   UNL     1      -6.715  10.498  -7.275  1.00  0.00     0.099 C 
ATOM      7  C   UNL     1      -9.086  10.558  -7.313  1.00  0.00     0.099 C 
ATOM      8  C   UNL     1      -6.696  11.812  -6.480  1.00  0.00     0.100 C 
ATOM      9  C   UNL     1      -9.057  11.858  -6.486  1.00  0.00     0.100 C 
ATOM     10  C   UNL     1      -7.936   8.532  -7.839  1.00  0.00     0.105 C 
ENDBRANCH   3   4
ENDBRANCH   2   3
ENDBRANCH   1   2
BRANCH   1  11
ATOM     11  C   UNL     1     -10.172  15.597  -7.582  1.00  0.00     0.125 A 
ATOM     12  C   UNL     1      -9.890  14.790  -8.622  1.00  0.00     0.093 A 
ATOM     13  C   UNL     1     -11.268  16.352  -7.719  1.00  0.00     0.073 A 
ATOM     14  C   UNL     1     -10.622  14.696  -9.756  1.00  0.00     0.132 A 
ATOM     15  C   UNL     1     -12.021  16.299  -8.827  1.00  0.00     0.054 A 
ATOM     16  C   UNL     1     -11.730  15.479  -9.875  1.00  0.00     0.062 A 
ATOM     17  N   UNL     1     -13.028  17.069  -8.821  1.00  0.00    -0.346 N 
ATOM     18  C   UNL     1     -12.579  15.529 -10.942  1.00  0.00     0.236 C 
ATOM     19  C   UNL     1     -13.757  17.044  -9.847  1.00  0.00     0.193 C 
ATOM     20  N   UNL     1     -13.574  16.326 -10.869  1.00  0.00    -0.246 NA
ATOM     21  H   UNL     1     -13.230  17.655  -8.056  1.00  0.00     0.167 HD
BRANCH  14  22
ATOM     22  O   UNL     1     -10.222  13.841 -10.766  1.00  0.00    -0.490 OA
BRANCH  22  23
ATOM     23  C   UNL     1      -9.947  12.478 -10.550  1.00  0.00     0.178 C 
ATOM     24  C   UNL     1     -10.670  11.549 -11.526  1.00  0.00     0.073 C 
ATOM     25  C   UNL     1      -8.428  12.327 -10.735  1.00  0.00     0.073 C 
ATOM     26  C   UNL     1     -10.072  10.146 -11.493  1.00  0.00     0.164 C 
ATOM     27  C   UNL     1      -8.011  10.861 -10.747  1.00  0.00     0.164 C 
ATOM     28  O   UNL     1      -8.693  10.182 -11.767  1.00  0.00    -0.381 OA
ENDBRANCH  22  23
ENDBRANCH  14  22
BRANCH  18  29
ATOM     29  N   UNL     1     -12.631  14.917 -12.067  1.00  0.00    -0.355 N 
ATOM     30  H   UNL     1     -11.776  15.096 -12.656  1.00  0.00     0.163 HD
BRANCH  29  31
ATOM     31  C   UNL     1     -13.438  14.140 -12.687  1.00  0.00     0.102 A 
ATOM     32  C   UNL     1     -13.894  12.964 -12.200  1.00  0.00     0.190 A 
ATOM     33  C   UNL     1     -13.893  14.481 -13.927  1.00  0.00     0.068 A 
ATOM     34  O   UNL     1     -13.633  12.445 -11.112  1.00  0.00    -0.451 OA
ATOM     35  C   UNL     1     -14.729  12.173 -12.886  1.00  0.00     0.168 A 
ATOM     36  C   UNL     1     -14.731  13.678 -14.611  1.00  0.00     0.027 A 
ATOM     37  C   UNL     1     -14.385  11.238 -10.991  1.00  0.00     0.468 C 
ATOM     38  O   UNL     1     -15.019  11.154 -12.261  1.00  0.00    -0.454 OA
ATOM     39  C   UNL     1     -15.163  12.515 -14.102  1.00  0.00     0.052 A 
ATOM     40  Cl  UNL     1     -13.442  15.941 -14.761  1.00  0.00    -0.082 Cl
ENDBRANCH  29  31
ENDBRANCH  18  29
ENDBRANCH   1  11
TORSDOF 8
ENDMDL
MODEL 7
REMARK VINA RESULT:    -8.770      2.896      3.922
REMARK INTER + INTRA:         -14.678
REMARK INTER:                 -12.696
REMARK INTRA:                  -1.982
REMARK UNBOUND:                -1.806
REMARK SMILES CN1CCN(CCOc2cc3c(c(OC4CCOCC4)c2)C(Nc2c(Cl)ccc4c2OCO4)N=CN3)CC1
REMARK SMILES IDX 8 1 7 2 6 3 5 4 2 5 3 6 38 7 4 8 37 9 1 10 9 11 21 12 10 13
REMARK SMILES IDX 13 14 11 15 12 16 36 17 22 18 35 19 34 20 14 22 15 23 16 24
REMARK SMILES IDX 20 25 17 26 19 27 18 28 23 29 24 31 30 32 25 33 31 34 29 35
REMARK SMILES IDX 27 36 32 37 33 38 28 39 26 40
REMARK H PARENT 36 21 23 30
ROOT
ATOM      1  O   UNL     1     -10.672  16.037  -8.005  1.00  0.00    -0.492 OA
ENDROOT
BRANCH   1   2
ATOM      2  C   UNL     1     -10.321  14.906  -7.244  1.00  0.00     0.245 C 
BRANCH   2   3
ATOM      3  C   UNL     1      -8.836  14.535  -7.393  1.00  0.00     0.126 C 
BRANCH   3   4
ATOM      4  N   UNL     1      -8.546  13.142  -7.717  1.00  0.00    -0.297 NA
ATOM      5  N   UNL     1      -9.462  10.480  -8.505  1.00  0.00    -0.304 NA
ATOM      6  C   UNL     1      -9.105  10.788  -7.131  1.00  0.00     0.099 C 
ATOM      7  C   UNL     1      -8.704  11.330  -9.406  1.00  0.00     0.099 C 
ATOM      8  C   UNL     1      -9.299  12.278  -6.813  1.00  0.00     0.100 C 
ATOM      9  C   UNL     1      -8.934  12.818  -9.082  1.00  0.00     0.100 C 
ATOM     10  C   UNL     1      -9.209   9.078  -8.787  1.00  0.00     0.105 C 
ENDBRANCH   3   4
ENDBRANCH   2   3
ENDBRANCH   1   2
BRANCH   1  11
ATOM     11  C   UNL     1     -11.554  15.815  -9.033  1.00  0.00     0.125 A 
ATOM     12  C   UNL     1     -11.426  14.765  -9.865  1.00  0.00     0.093 A 
ATOM     13  C   UNL     1     -12.602  16.613  -9.270  1.00  0.00     0.073 A 
ATOM     14  C   UNL     1     -12.262  14.474 -10.888  1.00  0.00     0.132 A 
ATOM     15  C   UNL     1     -13.455  16.370 -10.276  1.00  0.00     0.054 A 
ATOM     16  C   UNL     1     -13.318  15.304 -11.114  1.00  0.00     0.062 A 
ATOM     17  N   UNL     1     -14.399  17.208 -10.386  1.00  0.00    -0.346 N 
ATOM     18  C   UNL     1     -14.254  15.180 -12.099  1.00  0.00     0.236 C 
ATOM     19  C   UNL     1     -15.217  17.009 -11.321  1.00  0.00     0.193 C 
ATOM     20  N   UNL     1     -15.179  16.058 -12.150  1.00  0.00    -0.246 NA
ATOM     21  H   UNL     1     -14.489  17.973  -9.772  1.00  0.00     0.167 HD
BRANCH  14  22
ATOM     22  O   UNL     1     -12.017  13.374 -11.688  1.00  0.00    -0.490 OA
BRANCH  22  23
ATOM     23  C   UNL     1     -12.019  12.056 -11.196  1.00  0.00     0.178 C 
ATOM     24  C   UNL     1     -13.422  11.500 -10.949  1.00  0.00     0.073 C 
ATOM     25  C   UNL     1     -11.321  11.210 -12.273  1.00  0.00     0.073 C 
ATOM     26  C   UNL     1     -13.390   9.985 -10.772  1.00  0.00     0.164 C 
ATOM     27  C   UNL     1     -11.443   9.719 -11.978  1.00  0.00     0.164 C 
ATOM     28  O   UNL     1     -12.796   9.363 -11.886  1.00  0.00    -0.381 OA
ENDBRANCH  22  23
ENDBRANCH  14  22
BRANCH  18  29
ATOM     29  N   UNL     1     -14.451  14.328 -13.036  1.00  0.00    -0.355 N 
ATOM     30  H   UNL     1     -14.297  13.337 -12.711  1.00  0.00     0.163 HD
BRANCH  29  31
ATOM     31  C   UNL     1     -14.785  14.338 -14.272  1.00  0.00     0.102 A 
ATOM     32  C   UNL     1     -15.876  13.715 -14.775  1.00  0.00     0.190 A 
ATOM     33  C   UNL     1     -14.019  15.009 -15.179  1.00  0.00     0.068 A 
ATOM     34  O   UNL     1     -16.717  13.054 -14.162  1.00  0.00    -0.451 OA
ATOM     35  C   UNL     1     -16.185  13.740 -16.077  1.00  0.00     0.168 A 
ATOM     36  C   UNL     1     -14.337  15.026 -16.488  1.00  0.00     0.027 A 
ATOM     37  C   UNL     1     -17.726  12.637 -15.081  1.00  0.00     0.468 C 
ATOM     38  O   UNL     1     -17.214  13.112 -16.320  1.00  0.00    -0.454 OA
ATOM     39  C   UNL     1     -15.423  14.396 -16.957  1.00  0.00     0.052 A 
ATOM     40  Cl  UNL     1     -12.568  15.880 -14.771  1.00  0.00    -0.082 Cl
ENDBRANCH  29  31
ENDBRANCH  18  29
ENDBRANCH   1  11
TORSDOF 8
ENDMDL
MODEL 8
REMARK VINA RESULT:    -8.741      1.535      2.279
REMARK INTER + INTRA:         -14.636
REMARK INTER:                 -12.641
REMARK INTRA:                  -1.995
REMARK UNBOUND:                -1.806
REMARK SMILES CN1CCN(CCOc2cc3c(c(OC4CCOCC4)c2)C(Nc2c(Cl)ccc4c2OCO4)N=CN3)CC1
REMARK SMILES IDX 8 1 7 2 6 3 5 4 2 5 3 6 38 7 4 8 37 9 1 10 9 11 21 12 10 13
REMARK SMILES IDX 13 14 11 15 12 16 36 17 22 18 35 19 34 20 14 22 15 23 16 24
REMARK SMILES IDX 20 25 17 26 19 27 18 28 23 29 24 31 30 32 25 33 31 34 29 35
REMARK SMILES IDX 27 36 32 37 33 38 28 39 26 40
REMARK H PARENT 36 21 23 30
ROOT
ATOM      1  O   UNL     1      -9.716  16.340  -6.602  1.00  0.00    -0.492 OA
ENDROOT
BRANCH   1   2
ATOM      2  C   UNL     1      -8.449  15.727  -6.557  1.00  0.00     0.245 C 
BRANCH   2   3
ATOM      3  C   UNL     1      -8.237  14.915  -5.268  1.00  0.00     0.126 C 
BRANCH   3   4
ATOM      4  N   UNL     1      -7.847  13.520  -5.441  1.00  0.00    -0.297 NA
ATOM      5  N   UNL     1      -6.810  11.368  -7.126  1.00  0.00    -0.304 NA
ATOM      6  C   UNL     1      -8.226  11.486  -6.826  1.00  0.00     0.099 C 
ATOM      7  C   UNL     1      -6.033  11.932  -6.037  1.00  0.00     0.099 C 
ATOM      8  C   UNL     1      -8.626  12.939  -6.530  1.00  0.00     0.100 C 
ATOM      9  C   UNL     1      -6.436  13.396  -5.776  1.00  0.00     0.100 C 
ATOM     10  C   UNL     1      -6.457   9.975  -7.340  1.00  0.00     0.105 C 
ENDBRANCH   3   4
ENDBRANCH   2   3
ENDBRANCH   1   2
BRANCH   1  11
ATOM     11  C   UNL     1     -10.468  16.075  -7.720  1.00  0.00     0.125 A 
ATOM     12  C   UNL     1     -10.136  15.098  -8.584  1.00  0.00     0.093 A 
ATOM     13  C   UNL     1     -11.582  16.755  -8.019  1.00  0.00     0.073 A 
ATOM     14  C   UNL     1     -10.835  14.770  -9.695  1.00  0.00     0.132 A 
ATOM     15  C   UNL     1     -12.304  16.471  -9.112  1.00  0.00     0.054 A 
ATOM     16  C   UNL     1     -11.961  15.480  -9.982  1.00  0.00     0.062 A 
ATOM     17  N   UNL     1     -13.332  17.195  -9.273  1.00  0.00    -0.346 N 
ATOM     18  C   UNL     1     -12.783  15.301 -11.056  1.00  0.00     0.236 C 
ATOM     19  C   UNL     1     -14.032  16.954 -10.290  1.00  0.00     0.193 C 
ATOM     20  N   UNL     1     -13.801  16.065 -11.155  1.00  0.00    -0.246 NA
ATOM     21  H   UNL     1     -13.570  17.907  -8.635  1.00  0.00     0.167 HD
BRANCH  14  22
ATOM     22  O   UNL     1     -10.384  13.755 -10.518  1.00  0.00    -0.490 OA
BRANCH  22  23
ATOM     23  C   UNL     1     -10.235  12.426 -10.081  1.00  0.00     0.178 C 
ATOM     24  C   UNL     1     -11.352  11.963  -9.146  1.00  0.00     0.073 C 
ATOM     25  C   UNL     1     -10.252  11.566 -11.356  1.00  0.00     0.073 C 
ATOM     26  C   UNL     1     -11.350  10.445  -8.995  1.00  0.00     0.164 C 
ATOM     27  C   UNL     1     -10.320  10.079 -11.025  1.00  0.00     0.164 C 
ATOM     28  O   UNL     1     -11.458   9.817 -10.250  1.00  0.00    -0.381 OA
ENDBRANCH  22  23
ENDBRANCH  14  22
BRANCH  18  29
ATOM     29  N   UNL     1     -12.788  14.488 -12.047  1.00  0.00    -0.355 N 
ATOM     30  H   UNL     1     -11.856  14.014 -12.176  1.00  0.00     0.163 HD
BRANCH  29  31
ATOM     31  C   UNL     1     -13.614  14.083 -12.938  1.00  0.00     0.102 A 
ATOM     32  C   UNL     1     -13.858  14.725 -14.103  1.00  0.00     0.190 A 
ATOM     33  C   UNL     1     -14.318  12.933 -12.739  1.00  0.00     0.068 A 
ATOM     34  O   UNL     1     -13.349  15.772 -14.510  1.00  0.00    -0.451 OA
ATOM     35  C   UNL     1     -14.740  14.274 -15.004  1.00  0.00     0.168 A 
ATOM     36  C   UNL     1     -15.205  12.488 -13.651  1.00  0.00     0.027 A 
ATOM     37  C   UNL     1     -13.854  16.047 -15.816  1.00  0.00     0.468 C 
ATOM     38  O   UNL     1     -14.808  15.006 -15.991  1.00  0.00    -0.454 OA
ATOM     39  C   UNL     1     -15.428  13.148 -14.796  1.00  0.00     0.052 A 
ATOM     40  Cl  UNL     1     -14.178  11.939 -11.317  1.00  0.00    -0.082 Cl
ENDBRANCH  29  31
ENDBRANCH  18  29
ENDBRANCH   1  11
TORSDOF 8
ENDMDL
MODEL 9
REMARK VINA RESULT:    -8.721      2.322      3.294
REMARK INTER + INTRA:         -14.606
REMARK INTER:                 -12.771
REMARK INTRA:                  -1.836
REMARK UNBOUND:                -1.806
REMARK SMILES CN1CCN(CCOc2cc3c(c(OC4CCOCC4)c2)C(Nc2c(Cl)ccc4c2OCO4)N=CN3)CC1
REMARK SMILES IDX 8 1 7 2 6 3 5 4 2 5 3 6 38 7 4 8 37 9 1 10 9 11 21 12 10 13
REMARK SMILES IDX 13 14 11 15 12 16 36 17 22 18 35 19 34 20 14 22 15 23 16 24
REMARK SMILES IDX 20 25 17 26 19 27 18 28 23 29 24 31 30 32 25 33 31 34 29 35
REMARK SMILES IDX 27 36 32 37 33 38 28 39 26 40
REMARK H PARENT 36 21 23 30
ROOT
ATOM      1  O   UNL     1      -9.318  15.857  -6.185  1.00  0.00    -0.492 OA
ENDROOT
BRANCH   1   2
ATOM      2  C   UNL     1      -7.960  16.177  -6.374  1.00  0.00     0.245 C 
BRANCH   2   3
ATOM      3  C   UNL     1      -7.189  16.274  -5.047  1.00  0.00     0.126 C 
BRANCH   3   4
ATOM      4  N   UNL     1      -6.956  17.619  -4.532  1.00  0.00    -0.297 NA
ATOM      5  N   UNL     1      -7.763  20.418  -4.296  1.00  0.00    -0.304 NA
ATOM      6  C   UNL     1      -6.699  20.005  -5.193  1.00  0.00     0.099 C 
ATOM      7  C   UNL     1      -7.837  19.501  -3.174  1.00  0.00     0.099 C 
ATOM      8  C   UNL     1      -6.874  18.550  -5.653  1.00  0.00     0.100 C 
ATOM      9  C   UNL     1      -8.037  18.053  -3.659  1.00  0.00     0.100 C 
ATOM     10  C   UNL     1      -7.532  21.776  -3.835  1.00  0.00     0.105 C 
ENDBRANCH   3   4
ENDBRANCH   2   3
ENDBRANCH   1   2
BRANCH   1  11
ATOM     11  C   UNL     1     -10.069  15.737  -7.328  1.00  0.00     0.125 A 
ATOM     12  C   UNL     1      -9.767  14.838  -8.284  1.00  0.00     0.093 A 
ATOM     13  C   UNL     1     -11.152  16.487  -7.563  1.00  0.00     0.073 A 
ATOM     14  C   UNL     1     -10.467  14.653  -9.427  1.00  0.00     0.132 A 
ATOM     15  C   UNL     1     -11.873  16.344  -8.684  1.00  0.00     0.054 A 
ATOM     16  C   UNL     1     -11.562  15.433  -9.647  1.00  0.00     0.062 A 
ATOM     17  N   UNL     1     -12.870  17.122  -8.777  1.00  0.00    -0.346 N 
ATOM     18  C   UNL     1     -12.379  15.397 -10.739  1.00  0.00     0.236 C 
ATOM     19  C   UNL     1     -13.569  17.014  -9.818  1.00  0.00     0.193 C 
ATOM     20  N   UNL     1     -13.365  16.207 -10.767  1.00  0.00    -0.246 NA
ATOM     21  H   UNL     1     -13.086  17.775  -8.072  1.00  0.00     0.167 HD
BRANCH  14  22
ATOM     22  O   UNL     1     -10.049  13.708 -10.346  1.00  0.00    -0.490 OA
BRANCH  22  23
ATOM     23  C   UNL     1      -9.846  12.356 -10.013  1.00  0.00     0.178 C 
ATOM     24  C   UNL     1     -10.835  11.828  -8.973  1.00  0.00     0.073 C 
ATOM     25  C   UNL     1     -10.024  11.575 -11.326  1.00  0.00     0.073 C 
ATOM     26  C   UNL     1     -10.813  10.304  -8.918  1.00  0.00     0.164 C 
ATOM     27  C   UNL     1     -10.048  10.070 -11.080  1.00  0.00     0.164 C 
ATOM     28  O   UNL     1     -11.079   9.753 -10.184  1.00  0.00    -0.381 OA
ENDBRANCH  22  23
ENDBRANCH  14  22
BRANCH  18  29
ATOM     29  N   UNL     1     -12.406  14.689 -11.807  1.00  0.00    -0.355 N 
ATOM     30  H   UNL     1     -11.477  14.684 -12.304  1.00  0.00     0.163 HD
BRANCH  29  31
ATOM     31  C   UNL     1     -13.253  13.976 -12.452  1.00  0.00     0.102 A 
ATOM     32  C   UNL     1     -13.738  12.789 -12.022  1.00  0.00     0.190 A 
ATOM     33  C   UNL     1     -13.724  14.404 -13.658  1.00  0.00     0.068 A 
ATOM     34  O   UNL     1     -13.471  12.200 -10.973  1.00  0.00    -0.451 OA
ATOM     35  C   UNL     1     -14.615  12.068 -12.732  1.00  0.00     0.168 A 
ATOM     36  C   UNL     1     -14.604  13.670 -14.367  1.00  0.00     0.027 A 
ATOM     37  C   UNL     1     -14.260  11.013 -10.903  1.00  0.00     0.468 C 
ATOM     38  O   UNL     1     -14.925  11.024 -12.160  1.00  0.00    -0.454 OA
ATOM     39  C   UNL     1     -15.064  12.495 -13.915  1.00  0.00     0.052 A 
ATOM     40  Cl  UNL     1     -13.242  15.895 -14.417  1.00  0.00    -0.082 Cl
ENDBRANCH  29  31
ENDBRANCH  18  29
ENDBRANCH   1  11
TORSDOF 8
ENDMDL
MODEL 10
REMARK VINA RESULT:    -8.536      2.563      4.002
REMARK INTER + INTRA:         -14.334
REMARK INTER:                 -12.205
REMARK INTRA:                  -2.129
REMARK UNBOUND:                -1.806
REMARK SMILES CN1CCN(CCOc2cc3c(c(OC4CCOCC4)c2)C(Nc2c(Cl)ccc4c2OCO4)N=CN3)CC1
REMARK SMILES IDX 8 1 7 2 6 3 5 4 2 5 3 6 38 7 4 8 37 9 1 10 9 11 21 12 10 13
REMARK SMILES IDX 13 14 11 15 12 16 36 17 22 18 35 19 34 20 14 22 15 23 16 24
REMARK SMILES IDX 20 25 17 26 19 27 18 28 23 29 24 31 30 32 25 33 31 34 29 35
REMARK SMILES IDX 27 36 32 37 33 38 28 39 26 40
REMARK H PARENT 36 21 23 30
ROOT
ATOM      1  O   UNL     1     -10.158  12.700  -6.568  1.00  0.00    -0.492 OA
ENDROOT
BRANCH   1   2
ATOM      2  C   UNL     1      -8.821  13.089  -6.358  1.00  0.00     0.245 C 
BRANCH   2   3
ATOM      3  C   UNL     1      -7.855  11.892  -6.354  1.00  0.00     0.126 C 
BRANCH   3   4
ATOM      4  N   UNL     1      -7.883  11.034  -7.534  1.00  0.00    -0.297 NA
ATOM      5  N   UNL     1      -7.111   8.562  -8.890  1.00  0.00    -0.304 NA
ATOM      6  C   UNL     1      -6.450   9.824  -9.170  1.00  0.00     0.099 C 
ATOM      7  C   UNL     1      -8.478   8.813  -8.470  1.00  0.00     0.099 C 
ATOM      8  C   UNL     1      -6.513  10.780  -7.970  1.00  0.00     0.100 C 
ATOM      9  C   UNL     1      -8.515   9.754  -7.250  1.00  0.00     0.100 C 
ATOM     10  C   UNL     1      -7.084   7.709 -10.065  1.00  0.00     0.105 C 
ENDBRANCH   3   4
ENDBRANCH   2   3
ENDBRANCH   1   2
BRANCH   1  11
ATOM     11  C   UNL     1     -10.724  13.119  -7.747  1.00  0.00     0.125 A 
ATOM     12  C   UNL     1     -10.827  12.303  -8.814  1.00  0.00     0.093 A 
ATOM     13  C   UNL     1     -11.221  14.350  -7.913  1.00  0.00     0.073 A 
ATOM     14  C   UNL     1     -11.384  12.639 -10.000  1.00  0.00     0.132 A 
ATOM     15  C   UNL     1     -11.777  14.731  -9.073  1.00  0.00     0.054 A 
ATOM     16  C   UNL     1     -11.877  13.900 -10.147  1.00  0.00     0.062 A 
ATOM     17  N   UNL     1     -12.204  15.924  -9.090  1.00  0.00    -0.346 N 
ATOM     18  C   UNL     1     -12.461  14.419 -11.266  1.00  0.00     0.236 C 
ATOM     19  C   UNL     1     -12.731  16.314 -10.164  1.00  0.00     0.193 C 
ATOM     20  N   UNL     1     -12.869  15.627 -11.213  1.00  0.00    -0.246 NA
ATOM     21  H   UNL     1     -12.127  16.514  -8.305  1.00  0.00     0.167 HD
BRANCH  14  22
ATOM     22  O   UNL     1     -11.417  11.719 -11.031  1.00  0.00    -0.490 OA
BRANCH  22  23
ATOM     23  C   UNL     1     -10.848  10.436 -10.929  1.00  0.00     0.178 C 
ATOM     24  C   UNL     1     -11.880   9.326 -10.725  1.00  0.00     0.073 C 
ATOM     25  C   UNL     1     -10.109  10.204 -12.257  1.00  0.00     0.073 C 
ATOM     26  C   UNL     1     -11.268   7.953 -10.983  1.00  0.00     0.164 C 
ATOM     27  C   UNL     1      -9.624   8.763 -12.382  1.00  0.00     0.164 C 
ATOM     28  O   UNL     1     -10.713   7.886 -12.274  1.00  0.00    -0.381 OA
ENDBRANCH  22  23
ENDBRANCH  14  22
BRANCH  18  29
ATOM     29  N   UNL     1     -12.730  13.950 -12.428  1.00  0.00    -0.355 N 
ATOM     30  H   UNL     1     -11.889  13.503 -12.880  1.00  0.00     0.163 HD
BRANCH  29  31
ATOM     31  C   UNL     1     -13.743  13.869 -13.207  1.00  0.00     0.102 A 
ATOM     32  C   UNL     1     -13.957  14.678 -14.270  1.00  0.00     0.190 A 
ATOM     33  C   UNL     1     -14.696  12.919 -12.987  1.00  0.00     0.068 A 
ATOM     34  O   UNL     1     -13.246  15.600 -14.672  1.00  0.00    -0.451 OA
ATOM     35  C   UNL     1     -15.037  14.568 -15.054  1.00  0.00     0.168 A 
ATOM     36  C   UNL     1     -15.781  12.817 -13.780  1.00  0.00     0.027 A 
ATOM     37  C   UNL     1     -13.825  16.139 -15.860  1.00  0.00     0.468 C 
ATOM     38  O   UNL     1     -15.036  15.399 -15.961  1.00  0.00    -0.454 OA
ATOM     39  C   UNL     1     -15.967  13.636 -14.825  1.00  0.00     0.052 A 
ATOM     40  Cl  UNL     1     -14.641  11.770 -11.681  1.00  0.00    -0.082 Cl
ENDBRANCH  29  31
ENDBRANCH  18  29
ENDBRANCH   1  11
TORSDOF 8
ENDMDL
