REMARK SMILES O=C(N[C@H]1CN2CCC1CC2)c1cc2cccc(Cl)c2s1
REMARK SMILES IDX 12 1 13 2 14 3 20 4 18 5 17 6 16 7 15 8 21 9 19 10 2 11 3 12
REMARK SMILES IDX 1 13 4 15 9 16 5 17 8 18 10 19 6 20 7 21 11 22
REMARK H PARENT 3 14
ROOT
ATOM      1  C   UNL     1     144.039 138.437  90.565  1.00  0.00     0.093 A 
ATOM      2  C   UNL     1     143.586 137.213  90.922  1.00  0.00     0.034 A 
ATOM      3  C   UNL     1     144.519 136.217  91.366  1.00  0.00    -0.005 A 
ATOM      4  C   UNL     1     145.881 136.679  91.375  1.00  0.00     0.054 A 
ATOM      5  C   UNL     1     146.885 135.832  91.779  1.00  0.00     0.058 A 
ATOM      6  C   UNL     1     146.577 134.528  92.179  1.00  0.00     0.022 A 
ATOM      7  C   UNL     1     145.245 134.080  92.168  1.00  0.00     0.002 A 
ATOM      8  C   UNL     1     144.224 134.938  91.758  1.00  0.00     0.010 A 
ATOM      9  S   UNL     1     145.765 138.395  90.786  1.00  0.00    -0.128 S 
ATOM     10  Cl  UNL     1     148.577 136.394  91.793  1.00  0.00    -0.083 Cl
ENDROOT
BRANCH   1  11
ATOM     11  C   UNL     1     143.176 139.603  90.070  1.00  0.00     0.261 C 
ATOM     12  N   UNL     1     141.734 139.472  89.992  1.00  0.00    -0.347 N 
ATOM     13  O   UNL     1     143.693 140.618  89.746  1.00  0.00    -0.268 OA
ATOM     14  H   UNL     1     141.297 138.631  90.257  1.00  0.00     0.164 HD
BRANCH  12  15
ATOM     15  C   UNL     1     140.924 140.614  89.510  1.00  0.00     0.099 C 
ATOM     16  C   UNL     1     139.716 140.747  90.319  1.00  0.00     0.015 C 
ATOM     17  C   UNL     1     140.500 140.377  88.047  1.00  0.00     0.109 C 
ATOM     18  C   UNL     1     138.933 141.832  89.797  1.00  0.00     0.021 C 
ATOM     19  C   UNL     1     138.940 139.516  90.192  1.00  0.00     0.021 C 
ATOM     20  N   UNL     1     139.109 140.388  87.915  1.00  0.00    -0.301 NA
ATOM     21  C   UNL     1     138.595 141.588  88.356  1.00  0.00     0.085 C 
ATOM     22  C   UNL     1     138.550 139.332  88.676  1.00  0.00     0.085 C 
ENDBRANCH  12  15
ENDBRANCH   1  11
TORSDOF 2
