MODEL 1
REMARK VINA RESULT:     0.246      0.000      0.000
REMARK INTER + INTRA:           0.734
REMARK INTER:                   0.347
REMARK INTRA:                   0.386
REMARK UNBOUND:                 0.386
REMARK SMILES Cc1ccc(NC(=O)c2ccc(CN3CCN(C)CC3)cc2)cc1Nc1nc(-c2cccnc2)cs1
REMARK SMILES IDX 6 1 7 2 8 3 5 5 2 6 3 7 24 8 4 9 23 10 1 11 25 12 26 14
REMARK SMILES IDX 27 15 36 16 28 17 35 18 29 19 30 20 34 21 31 22 33 23 32 24
REMARK SMILES IDX 9 25 10 26 22 27 11 28 21 29 12 30 13 31 14 32 15 33 20 34
REMARK SMILES IDX 16 35 19 36 17 37 18 38
REMARK H PARENT 6 4 25 13
ROOT
ATOM      1  N   UNL     1      31.100  27.613  45.846  1.00  0.00    -0.322 N 
ATOM      2  C   UNL     1      31.006  28.893  46.363  1.00  0.00     0.255 C 
ATOM      3  O   UNL     1      30.416  29.234  47.381  1.00  0.00    -0.269 OA
ATOM      4  H   UNL     1      31.747  27.480  45.081  1.00  0.00     0.170 HD
ENDROOT
BRANCH   1   5
ATOM      5  C   UNL     1      30.492  26.442  46.345  1.00  0.00     0.043 A 
ATOM      6  C   UNL     1      29.389  24.105  47.484  1.00  0.00    -0.027 A 
ATOM      7  C   UNL     1      30.579  24.649  47.982  1.00  0.00     0.008 A 
ATOM      8  C   UNL     1      28.763  24.720  46.384  1.00  0.00     0.045 A 
ATOM      9  C   UNL     1      31.123  25.806  47.419  1.00  0.00     0.026 A 
ATOM     10  C   UNL     1      29.321  25.886  45.828  1.00  0.00     0.052 A 
ATOM     11  C   UNL     1      28.831  22.859  48.115  1.00  0.00     0.046 C 
BRANCH   8  12
ATOM     12  N   UNL     1      27.584  24.174  45.823  1.00  0.00    -0.331 N 
ATOM     13  H   UNL     1      27.070  23.638  46.517  1.00  0.00     0.169 HD
BRANCH  12  14
ATOM     14  C   UNL     1      26.728  24.889  45.042  1.00  0.00     0.187 A 
ATOM     15  N   UNL     1      26.623  24.652  43.752  1.00  0.00    -0.220 NA
ATOM     16  S   UNL     1      25.717  26.173  45.603  1.00  0.00    -0.105 S 
ATOM     17  C   UNL     1      25.714  25.509  43.148  1.00  0.00     0.085 A 
ATOM     18  C   UNL     1      25.117  26.401  44.015  1.00  0.00     0.097 A 
BRANCH  17  19
ATOM     19  C   UNL     1      25.455  25.428  41.714  1.00  0.00     0.019 A 
ATOM     20  C   UNL     1      24.889  24.309  41.093  1.00  0.00     0.013 A 
ATOM     21  C   UNL     1      25.765  26.509  40.889  1.00  0.00     0.121 A 
ATOM     22  C   UNL     1      24.662  24.314  39.715  1.00  0.00     0.021 A 
ATOM     23  N   UNL     1      25.557  26.543  39.547  1.00  0.00    -0.264 NA
ATOM     24  C   UNL     1      25.009  25.443  38.992  1.00  0.00     0.111 A 
ENDBRANCH  17  19
ENDBRANCH  12  14
ENDBRANCH   8  12
ENDBRANCH   1   5
BRANCH   2  25
ATOM     25  C   UNL     1      31.759  29.926  45.598  1.00  0.00     0.040 A 
ATOM     26  C   UNL     1      33.143  30.010  45.774  1.00  0.00     0.014 A 
ATOM     27  C   UNL     1      31.112  30.813  44.729  1.00  0.00     0.014 A 
ATOM     28  C   UNL     1      33.882  30.954  45.058  1.00  0.00     0.006 A 
ATOM     29  C   UNL     1      31.854  31.760  44.017  1.00  0.00     0.006 A 
ATOM     30  C   UNL     1      33.247  31.831  44.164  1.00  0.00    -0.034 A 
BRANCH  30  31
ATOM     31  C   UNL     1      34.051  32.868  43.401  1.00  0.00     0.120 C 
BRANCH  31  32
ATOM     32  N   UNL     1      33.753  34.247  43.829  1.00  0.00    -0.297 NA
ATOM     33  C   UNL     1      34.947  34.871  44.426  1.00  0.00     0.100 C 
ATOM     34  C   UNL     1      32.639  34.286  44.808  1.00  0.00     0.100 C 
ATOM     35  C   UNL     1      35.396  34.291  45.795  1.00  0.00     0.099 C 
ATOM     36  C   UNL     1      33.038  34.341  46.308  1.00  0.00     0.099 C 
ATOM     37  N   UNL     1      34.311  33.659  46.571  1.00  0.00    -0.304 NA
ATOM     38  C   UNL     1      34.627  33.626  47.995  1.00  0.00     0.105 C 
ENDBRANCH  31  32
ENDBRANCH  30  31
ENDBRANCH   2  25
TORSDOF 7
ENDMDL
MODEL 2
REMARK VINA RESULT:     1.097      2.775     10.099
REMARK INTER + INTRA:           1.932
REMARK INTER:                   2.737
REMARK INTRA:                  -0.805
REMARK UNBOUND:                 0.386
REMARK SMILES Cc1ccc(NC(=O)c2ccc(CN3CCN(C)CC3)cc2)cc1Nc1nc(-c2cccnc2)cs1
REMARK SMILES IDX 6 1 7 2 8 3 5 5 2 6 3 7 24 8 4 9 23 10 1 11 25 12 26 14
REMARK SMILES IDX 27 15 36 16 28 17 35 18 29 19 30 20 34 21 31 22 33 23 32 24
REMARK SMILES IDX 9 25 10 26 22 27 11 28 21 29 12 30 13 31 14 32 15 33 20 34
REMARK SMILES IDX 16 35 19 36 17 37 18 38
REMARK H PARENT 6 4 25 13
ROOT
ATOM      1  N   UNL     1      27.531  24.793  44.379  1.00  0.00    -0.322 N 
ATOM      2  C   UNL     1      26.312  25.448  44.398  1.00  0.00     0.255 C 
ATOM      3  O   UNL     1      25.804  26.031  45.348  1.00  0.00    -0.269 OA
ATOM      4  H   UNL     1      27.869  24.492  43.476  1.00  0.00     0.170 HD
ENDROOT
BRANCH   1   5
ATOM      5  C   UNL     1      28.419  24.608  45.460  1.00  0.00     0.043 A 
ATOM      6  C   UNL     1      30.175  24.059  47.602  1.00  0.00    -0.027 A 
ATOM      7  C   UNL     1      29.391  23.042  47.043  1.00  0.00     0.008 A 
ATOM      8  C   UNL     1      30.054  25.369  47.104  1.00  0.00     0.045 A 
ATOM      9  C   UNL     1      28.524  23.315  45.982  1.00  0.00     0.026 A 
ATOM     10  C   UNL     1      29.178  25.629  46.033  1.00  0.00     0.052 A 
ATOM     11  C   UNL     1      31.099  23.730  48.742  1.00  0.00     0.046 C 
BRANCH   8  12
ATOM     12  N   UNL     1      30.795  26.432  47.673  1.00  0.00    -0.331 N 
ATOM     13  H   UNL     1      31.724  26.119  47.943  1.00  0.00     0.169 HD
BRANCH  12  14
ATOM     14  C   UNL     1      30.852  27.678  47.128  1.00  0.00     0.187 A 
ATOM     15  N   UNL     1      31.536  27.911  46.028  1.00  0.00    -0.220 NA
ATOM     16  S   UNL     1      30.090  29.082  47.788  1.00  0.00    -0.105 S 
ATOM     17  C   UNL     1      31.479  29.249  45.664  1.00  0.00     0.085 A 
ATOM     18  C   UNL     1      30.722  30.032  46.511  1.00  0.00     0.097 A 
BRANCH  17  19
ATOM     19  C   UNL     1      32.182  29.729  44.479  1.00  0.00     0.019 A 
ATOM     20  C   UNL     1      31.972  30.991  43.915  1.00  0.00     0.013 A 
ATOM     21  C   UNL     1      33.129  28.917  43.855  1.00  0.00     0.121 A 
ATOM     22  C   UNL     1      32.694  31.381  42.784  1.00  0.00     0.021 A 
ATOM     23  N   UNL     1      33.845  29.268  42.755  1.00  0.00    -0.264 NA
ATOM     24  C   UNL     1      33.609  30.494  42.247  1.00  0.00     0.111 A 
ENDBRANCH  17  19
ENDBRANCH  12  14
ENDBRANCH   8  12
ENDBRANCH   1   5
BRANCH   2  25
ATOM     25  C   UNL     1      25.599  25.465  43.091  1.00  0.00     0.040 A 
ATOM     26  C   UNL     1      26.307  25.113  41.938  1.00  0.00     0.014 A 
ATOM     27  C   UNL     1      24.252  25.836  42.994  1.00  0.00     0.014 A 
ATOM     28  C   UNL     1      25.664  25.100  40.699  1.00  0.00     0.006 A 
ATOM     29  C   UNL     1      23.611  25.825  41.751  1.00  0.00     0.006 A 
ATOM     30  C   UNL     1      24.308  25.445  40.594  1.00  0.00    -0.034 A 
BRANCH  30  31
ATOM     31  C   UNL     1      23.616  25.447  39.242  1.00  0.00     0.120 C 
BRANCH  31  32
ATOM     32  N   UNL     1      24.533  25.777  38.135  1.00  0.00    -0.297 NA
ATOM     33  C   UNL     1      23.865  26.657  37.158  1.00  0.00     0.100 C 
ATOM     34  C   UNL     1      25.018  24.557  37.445  1.00  0.00     0.100 C 
ATOM     35  C   UNL     1      22.724  26.000  36.333  1.00  0.00     0.099 C 
ATOM     36  C   UNL     1      24.259  24.146  36.153  1.00  0.00     0.099 C 
ATOM     37  N   UNL     1      22.844  24.536  36.190  1.00  0.00    -0.304 NA
ATOM     38  C   UNL     1      22.117  24.056  35.019  1.00  0.00     0.105 C 
ENDBRANCH  31  32
ENDBRANCH  30  31
ENDBRANCH   2  25
TORSDOF 7
ENDMDL
MODEL 3
REMARK VINA RESULT:     1.838      2.670     10.106
REMARK INTER + INTRA:           2.976
REMARK INTER:                   3.713
REMARK INTRA:                  -0.737
REMARK UNBOUND:                 0.386
REMARK SMILES Cc1ccc(NC(=O)c2ccc(CN3CCN(C)CC3)cc2)cc1Nc1nc(-c2cccnc2)cs1
REMARK SMILES IDX 6 1 7 2 8 3 5 5 2 6 3 7 24 8 4 9 23 10 1 11 25 12 26 14
REMARK SMILES IDX 27 15 36 16 28 17 35 18 29 19 30 20 34 21 31 22 33 23 32 24
REMARK SMILES IDX 9 25 10 26 22 27 11 28 21 29 12 30 13 31 14 32 15 33 20 34
REMARK SMILES IDX 16 35 19 36 17 37 18 38
REMARK H PARENT 6 4 25 13
ROOT
ATOM      1  N   UNL     1      27.570  24.751  44.329  1.00  0.00    -0.322 N 
ATOM      2  C   UNL     1      26.360  25.421  44.309  1.00  0.00     0.255 C 
ATOM      3  O   UNL     1      25.840  26.029  45.237  1.00  0.00    -0.269 OA
ATOM      4  H   UNL     1      27.923  24.428  43.438  1.00  0.00     0.170 HD
ENDROOT
BRANCH   1   5
ATOM      5  C   UNL     1      28.432  24.575  45.431  1.00  0.00     0.043 A 
ATOM      6  C   UNL     1      30.137  24.044  47.620  1.00  0.00    -0.027 A 
ATOM      7  C   UNL     1      29.360  23.024  47.055  1.00  0.00     0.008 A 
ATOM      8  C   UNL     1      30.034  25.348  47.102  1.00  0.00     0.045 A 
ATOM      9  C   UNL     1      28.519  23.288  45.972  1.00  0.00     0.026 A 
ATOM     10  C   UNL     1      29.184  25.598  46.009  1.00  0.00     0.052 A 
ATOM     11  C   UNL     1      31.033  23.724  48.785  1.00  0.00     0.046 C 
BRANCH   8  12
ATOM     12  N   UNL     1      30.768  26.415  47.674  1.00  0.00    -0.331 N 
ATOM     13  H   UNL     1      31.687  26.099  47.974  1.00  0.00     0.169 HD
BRANCH  12  14
ATOM     14  C   UNL     1      30.848  27.652  47.113  1.00  0.00     0.187 A 
ATOM     15  N   UNL     1      31.537  27.857  46.011  1.00  0.00    -0.220 NA
ATOM     16  S   UNL     1      30.110  29.078  47.753  1.00  0.00    -0.105 S 
ATOM     17  C   UNL     1      31.505  29.190  45.629  1.00  0.00     0.085 A 
ATOM     18  C   UNL     1      30.760  29.999  46.464  1.00  0.00     0.097 A 
BRANCH  17  19
ATOM     19  C   UNL     1      32.218  29.642  44.438  1.00  0.00     0.019 A 
ATOM     20  C   UNL     1      33.085  28.827  43.703  1.00  0.00     0.013 A 
ATOM     21  C   UNL     1      32.041  30.945  43.973  1.00  0.00     0.121 A 
ATOM     22  C   UNL     1      33.723  29.331  42.567  1.00  0.00     0.021 A 
ATOM     23  N   UNL     1      32.647  31.462  42.873  1.00  0.00    -0.264 NA
ATOM     24  C   UNL     1      33.474  30.641  42.196  1.00  0.00     0.111 A 
ENDBRANCH  17  19
ENDBRANCH  12  14
ENDBRANCH   8  12
ENDBRANCH   1   5
BRANCH   2  25
ATOM     25  C   UNL     1      25.675  25.422  42.987  1.00  0.00     0.040 A 
ATOM     26  C   UNL     1      24.320  25.762  42.936  1.00  0.00     0.014 A 
ATOM     27  C   UNL     1      26.351  25.079  41.809  1.00  0.00     0.014 A 
ATOM     28  C   UNL     1      23.652  25.792  41.710  1.00  0.00     0.006 A 
ATOM     29  C   UNL     1      25.679  25.106  40.584  1.00  0.00     0.006 A 
ATOM     30  C   UNL     1      24.327  25.474  40.520  1.00  0.00    -0.034 A 
BRANCH  30  31
ATOM     31  C   UNL     1      23.594  25.491  39.191  1.00  0.00     0.120 C 
BRANCH  31  32
ATOM     32  N   UNL     1      24.466  25.871  38.065  1.00  0.00    -0.297 NA
ATOM     33  C   UNL     1      23.725  26.699  37.095  1.00  0.00     0.100 C 
ATOM     34  C   UNL     1      25.017  24.680  37.374  1.00  0.00     0.100 C 
ATOM     35  C   UNL     1      22.615  25.963  36.296  1.00  0.00     0.099 C 
ATOM     36  C   UNL     1      24.263  24.211  36.099  1.00  0.00     0.099 C 
ATOM     37  N   UNL     1      22.826  24.509  36.159  1.00  0.00    -0.304 NA
ATOM     38  C   UNL     1      22.111  23.974  35.006  1.00  0.00     0.105 C 
ENDBRANCH  31  32
ENDBRANCH  30  31
ENDBRANCH   2  25
TORSDOF 7
ENDMDL
MODEL 4
REMARK VINA RESULT:     2.865      2.472     10.628
REMARK INTER + INTRA:           4.424
REMARK INTER:                   5.209
REMARK INTRA:                  -0.785
REMARK UNBOUND:                 0.386
REMARK SMILES Cc1ccc(NC(=O)c2ccc(CN3CCN(C)CC3)cc2)cc1Nc1nc(-c2cccnc2)cs1
REMARK SMILES IDX 6 1 7 2 8 3 5 5 2 6 3 7 24 8 4 9 23 10 1 11 25 12 26 14
REMARK SMILES IDX 27 15 36 16 28 17 35 18 29 19 30 20 34 21 31 22 33 23 32 24
REMARK SMILES IDX 9 25 10 26 22 27 11 28 21 29 12 30 13 31 14 32 15 33 20 34
REMARK SMILES IDX 16 35 19 36 17 37 18 38
REMARK H PARENT 6 4 25 13
ROOT
ATOM      1  N   UNL     1      27.353  24.916  44.286  1.00  0.00    -0.322 N 
ATOM      2  C   UNL     1      26.106  25.514  44.293  1.00  0.00     0.255 C 
ATOM      3  O   UNL     1      25.563  26.075  45.236  1.00  0.00    -0.269 OA
ATOM      4  H   UNL     1      27.713  24.629  43.387  1.00  0.00     0.170 HD
ENDROOT
BRANCH   1   5
ATOM      5  C   UNL     1      28.239  24.774  45.375  1.00  0.00     0.043 A 
ATOM      6  C   UNL     1      29.982  24.311  47.549  1.00  0.00    -0.027 A 
ATOM      7  C   UNL     1      29.151  23.290  47.070  1.00  0.00     0.008 A 
ATOM      8  C   UNL     1      29.915  25.584  46.953  1.00  0.00     0.045 A 
ATOM      9  C   UNL     1      28.291  23.520  45.993  1.00  0.00     0.026 A 
ATOM     10  C   UNL     1      29.045  25.800  45.868  1.00  0.00     0.052 A 
ATOM     11  C   UNL     1      30.897  24.028  48.708  1.00  0.00     0.046 C 
BRANCH   8  12
ATOM     12  N   UNL     1      30.705  26.653  47.438  1.00  0.00    -0.331 N 
ATOM     13  H   UNL     1      31.193  26.383  48.289  1.00  0.00     0.169 HD
BRANCH  12  14
ATOM     14  C   UNL     1      31.514  27.405  46.643  1.00  0.00     0.187 A 
ATOM     15  N   UNL     1      31.591  28.711  46.789  1.00  0.00    -0.220 NA
ATOM     16  S   UNL     1      32.497  26.785  45.364  1.00  0.00    -0.105 S 
ATOM     17  C   UNL     1      32.452  29.279  45.862  1.00  0.00     0.085 A 
ATOM     18  C   UNL     1      33.044  28.369  45.009  1.00  0.00     0.097 A 
BRANCH  17  19
ATOM     19  C   UNL     1      32.673  30.721  45.837  1.00  0.00     0.019 A 
ATOM     20  C   UNL     1      31.700  31.644  45.439  1.00  0.00     0.013 A 
ATOM     21  C   UNL     1      33.904  31.244  46.233  1.00  0.00     0.121 A 
ATOM     22  C   UNL     1      31.987  33.012  45.452  1.00  0.00     0.021 A 
ATOM     23  N   UNL     1      34.212  32.567  46.256  1.00  0.00    -0.264 NA
ATOM     24  C   UNL     1      33.243  33.419  45.865  1.00  0.00     0.111 A 
ENDBRANCH  17  19
ENDBRANCH  12  14
ENDBRANCH   8  12
ENDBRANCH   1   5
BRANCH   2  25
ATOM     25  C   UNL     1      25.405  25.495  42.978  1.00  0.00     0.040 A 
ATOM     26  C   UNL     1      26.123  25.109  41.843  1.00  0.00     0.014 A 
ATOM     27  C   UNL     1      24.060  25.867  42.858  1.00  0.00     0.014 A 
ATOM     28  C   UNL     1      25.491  25.062  40.599  1.00  0.00     0.006 A 
ATOM     29  C   UNL     1      23.431  25.823  41.610  1.00  0.00     0.006 A 
ATOM     30  C   UNL     1      24.137  25.408  40.471  1.00  0.00    -0.034 A 
BRANCH  30  31
ATOM     31  C   UNL     1      23.458  25.373  39.114  1.00  0.00     0.120 C 
BRANCH  31  32
ATOM     32  N   UNL     1      24.354  25.789  38.019  1.00  0.00    -0.297 NA
ATOM     33  C   UNL     1      23.622  26.611  37.037  1.00  0.00     0.100 C 
ATOM     34  C   UNL     1      24.954  24.621  37.330  1.00  0.00     0.100 C 
ATOM     35  C   UNL     1      22.554  25.859  36.196  1.00  0.00     0.099 C 
ATOM     36  C   UNL     1      24.250  24.150  36.028  1.00  0.00     0.099 C 
ATOM     37  N   UNL     1      22.806  24.412  36.049  1.00  0.00    -0.304 NA
ATOM     38  C   UNL     1      22.138  23.875  34.868  1.00  0.00     0.105 C 
ENDBRANCH  31  32
ENDBRANCH  30  31
ENDBRANCH   2  25
TORSDOF 7
ENDMDL
MODEL 5
REMARK VINA RESULT:     3.056      1.143      2.235
REMARK INTER + INTRA:           4.693
REMARK INTER:                   1.631
REMARK INTRA:                   3.062
REMARK UNBOUND:                 0.386
REMARK SMILES Cc1ccc(NC(=O)c2ccc(CN3CCN(C)CC3)cc2)cc1Nc1nc(-c2cccnc2)cs1
REMARK SMILES IDX 6 1 7 2 8 3 5 5 2 6 3 7 24 8 4 9 23 10 1 11 25 12 26 14
REMARK SMILES IDX 27 15 36 16 28 17 35 18 29 19 30 20 34 21 31 22 33 23 32 24
REMARK SMILES IDX 9 25 10 26 22 27 11 28 21 29 12 30 13 31 14 32 15 33 20 34
REMARK SMILES IDX 16 35 19 36 17 37 18 38
REMARK H PARENT 6 4 25 13
ROOT
ATOM      1  N   UNL     1      31.203  27.634  46.025  1.00  0.00    -0.322 N 
ATOM      2  C   UNL     1      31.020  28.773  46.788  1.00  0.00     0.255 C 
ATOM      3  O   UNL     1      30.282  28.899  47.757  1.00  0.00    -0.269 OA
ATOM      4  H   UNL     1      31.958  27.655  45.353  1.00  0.00     0.170 HD
ENDROOT
BRANCH   1   5
ATOM      5  C   UNL     1      30.539  26.396  46.162  1.00  0.00     0.043 A 
ATOM      6  C   UNL     1      29.368  23.846  46.485  1.00  0.00    -0.027 A 
ATOM      7  C   UNL     1      30.761  24.000  46.495  1.00  0.00     0.008 A 
ATOM      8  C   UNL     1      28.557  24.978  46.280  1.00  0.00     0.045 A 
ATOM      9  C   UNL     1      31.338  25.262  46.337  1.00  0.00     0.026 A 
ATOM     10  C   UNL     1      29.153  26.243  46.124  1.00  0.00     0.052 A 
ATOM     11  C   UNL     1      28.780  22.473  46.660  1.00  0.00     0.046 C 
BRANCH   8  12
ATOM     12  N   UNL     1      27.148  24.857  46.217  1.00  0.00    -0.331 N 
ATOM     13  H   UNL     1      26.736  24.976  47.139  1.00  0.00     0.169 HD
BRANCH  12  14
ATOM     14  C   UNL     1      26.387  25.472  45.271  1.00  0.00     0.187 A 
ATOM     15  N   UNL     1      26.350  25.029  44.032  1.00  0.00    -0.220 NA
ATOM     16  S   UNL     1      25.419  26.877  45.541  1.00  0.00    -0.105 S 
ATOM     17  C   UNL     1      25.534  25.815  43.233  1.00  0.00     0.085 A 
ATOM     18  C   UNL     1      24.935  26.866  43.898  1.00  0.00     0.097 A 
BRANCH  17  19
ATOM     19  C   UNL     1      25.362  25.510  41.816  1.00  0.00     0.019 A 
ATOM     20  C   UNL     1      24.813  24.313  41.345  1.00  0.00     0.013 A 
ATOM     21  C   UNL     1      25.745  26.443  40.852  1.00  0.00     0.121 A 
ATOM     22  C   UNL     1      24.673  24.100  39.971  1.00  0.00     0.021 A 
ATOM     23  N   UNL     1      25.622  26.264  39.511  1.00  0.00    -0.264 NA
ATOM     24  C   UNL     1      25.087  25.096  39.103  1.00  0.00     0.111 A 
ENDBRANCH  17  19
ENDBRANCH  12  14
ENDBRANCH   8  12
ENDBRANCH   1   5
BRANCH   2  25
ATOM     25  C   UNL     1      31.868  29.929  46.385  1.00  0.00     0.040 A 
ATOM     26  C   UNL     1      31.254  31.166  46.168  1.00  0.00     0.014 A 
ATOM     27  C   UNL     1      33.252  29.799  46.208  1.00  0.00     0.014 A 
ATOM     28  C   UNL     1      32.022  32.275  45.809  1.00  0.00     0.006 A 
ATOM     29  C   UNL     1      34.018  30.910  45.845  1.00  0.00     0.006 A 
ATOM     30  C   UNL     1      33.413  32.161  45.654  1.00  0.00    -0.034 A 
BRANCH  30  31
ATOM     31  C   UNL     1      34.243  33.365  45.246  1.00  0.00     0.120 C 
BRANCH  31  32
ATOM     32  N   UNL     1      33.739  34.014  44.022  1.00  0.00    -0.297 NA
ATOM     33  C   UNL     1      32.405  33.492  43.673  1.00  0.00     0.100 C 
ATOM     34  C   UNL     1      34.659  33.811  42.877  1.00  0.00     0.100 C 
ATOM     35  C   UNL     1      32.366  32.016  43.190  1.00  0.00     0.099 C 
ATOM     36  C   UNL     1      34.314  32.644  41.911  1.00  0.00     0.099 C 
ATOM     37  N   UNL     1      33.629  31.539  42.594  1.00  0.00    -0.304 NA
ATOM     38  C   UNL     1      33.401  30.407  41.703  1.00  0.00     0.105 C 
ENDBRANCH  31  32
ENDBRANCH  30  31
ENDBRANCH   2  25
TORSDOF 7
ENDMDL
