MODEL 1
REMARK VINA RESULT:    -7.371      0.000      0.000
REMARK INTER + INTRA:         -10.870
REMARK INTER:                  -9.741
REMARK INTRA:                  -1.129
REMARK UNBOUND:                -1.129
REMARK SMILES CCCNC(=O)c1nnc2c(-c3c(F)cccc3OC)cccc2c1N
REMARK SMILES IDX 7 1 8 2 9 3 10 4 24 5 25 6 23 7 22 8 21 9 11 10 5 11 4 12
REMARK SMILES IDX 6 13 3 15 2 16 1 17 26 18 12 21 18 22 13 23 17 24 15 25
REMARK SMILES IDX 16 26 14 27 19 28 20 29
REMARK H PARENT 4 14 26 19 26 20
ROOT
ATOM      1  C   UNL     1     142.738  97.161 138.139  1.00  0.00     0.174 A 
ATOM      2  N   UNL     1     141.535  97.648 137.763  1.00  0.00    -0.142 NA
ATOM      3  N   UNL     1     141.228  97.722 136.434  1.00  0.00    -0.149 NA
ATOM      4  C   UNL     1     142.108  97.349 135.480  1.00  0.00     0.103 A 
ATOM      5  C   UNL     1     143.380  96.846 135.843  1.00  0.00     0.028 A 
ATOM      6  C   UNL     1     143.692  96.707 137.222  1.00  0.00     0.075 A 
ATOM      7  C   UNL     1     144.293  96.511 134.813  1.00  0.00     0.013 A 
ATOM      8  C   UNL     1     143.958  96.638 133.470  1.00  0.00     0.002 A 
ATOM      9  C   UNL     1     142.702  97.108 133.123  1.00  0.00     0.011 A 
ATOM     10  C   UNL     1     141.774  97.467 134.117  1.00  0.00     0.017 A 
ENDROOT
BRANCH   1  11
ATOM     11  C   UNL     1     142.948  97.092 139.623  1.00  0.00     0.273 C 
ATOM     12  N   UNL     1     141.976  96.399 140.320  1.00  0.00    -0.351 N 
ATOM     13  O   UNL     1     143.924  97.609 140.159  1.00  0.00    -0.267 OA
ATOM     14  H   UNL     1     141.208  96.007 139.782  1.00  0.00     0.163 HD
BRANCH  12  15
ATOM     15  C   UNL     1     141.988  96.246 141.759  1.00  0.00     0.116 C 
BRANCH  15  16
ATOM     16  C   UNL     1     141.149  97.311 142.462  1.00  0.00     0.018 C 
ATOM     17  C   UNL     1     141.930  98.090 143.511  1.00  0.00     0.006 C 
ENDBRANCH  15  16
ENDBRANCH  12  15
ENDBRANCH   1  11
BRANCH   6  18
ATOM     18  N   UNL     1     144.989  96.292 137.627  1.00  0.00    -0.396 N 
ATOM     19  H   UNL     1     145.187  95.324 137.340  1.00  0.00     0.156 HD
ATOM     20  H   UNL     1     145.733  96.918 137.337  1.00  0.00     0.156 HD
ENDBRANCH   6  18
BRANCH  10  21
ATOM     21  C   UNL     1     140.451  97.972 133.705  1.00  0.00     0.062 A 
ATOM     22  C   UNL     1     139.375  97.103 133.422  1.00  0.00     0.129 A 
ATOM     23  C   UNL     1     140.242  99.353 133.572  1.00  0.00     0.134 A 
ATOM     24  C   UNL     1     138.137  97.630 133.028  1.00  0.00     0.047 A 
ATOM     25  C   UNL     1     139.014  99.874 133.175  1.00  0.00     0.040 A 
ATOM     26  C   UNL     1     137.959  99.011 132.904  1.00  0.00     0.007 A 
ATOM     27  F   UNL     1     141.238 100.213 133.840  1.00  0.00    -0.206 F 
BRANCH  22  28
ATOM     28  O   UNL     1     139.628  95.762 133.576  1.00  0.00    -0.496 OA
ATOM     29  C   UNL     1     139.633  94.959 132.403  1.00  0.00     0.278 C 
ENDBRANCH  22  28
ENDBRANCH  10  21
TORSDOF 6
ENDMDL
MODEL 2
REMARK VINA RESULT:    -7.111      1.654      2.241
REMARK INTER + INTRA:         -10.527
REMARK INTER:                  -9.397
REMARK INTRA:                  -1.130
REMARK UNBOUND:                -1.129
REMARK SMILES CCCNC(=O)c1nnc2c(-c3c(F)cccc3OC)cccc2c1N
REMARK SMILES IDX 7 1 8 2 9 3 10 4 24 5 25 6 23 7 22 8 21 9 11 10 5 11 4 12
REMARK SMILES IDX 6 13 3 15 2 16 1 17 26 18 12 21 18 22 13 23 17 24 15 25
REMARK SMILES IDX 16 26 14 27 19 28 20 29
REMARK H PARENT 4 14 26 19 26 20
ROOT
ATOM      1  C   UNL     1     142.889  96.696 137.733  1.00  0.00     0.174 A 
ATOM      2  N   UNL     1     141.639  96.946 137.284  1.00  0.00    -0.142 NA
ATOM      3  N   UNL     1     141.363  96.798 135.954  1.00  0.00    -0.149 NA
ATOM      4  C   UNL     1     142.314  96.436 135.067  1.00  0.00     0.103 A 
ATOM      5  C   UNL     1     143.635  96.180 135.505  1.00  0.00     0.028 A 
ATOM      6  C   UNL     1     143.925  96.271 136.893  1.00  0.00     0.075 A 
ATOM      7  C   UNL     1     144.616  95.850 134.538  1.00  0.00     0.013 A 
ATOM      8  C   UNL     1     144.304  95.748 133.187  1.00  0.00     0.002 A 
ATOM      9  C   UNL     1     143.003  95.977 132.769  1.00  0.00     0.011 A 
ATOM     10  C   UNL     1     142.005  96.323 133.698  1.00  0.00     0.017 A 
ENDROOT
BRANCH   1  11
ATOM     11  C   UNL     1     143.065  96.855 139.214  1.00  0.00     0.273 C 
ATOM     12  N   UNL     1     142.240  96.063 139.990  1.00  0.00    -0.351 N 
ATOM     13  O   UNL     1     143.895  97.629 139.684  1.00  0.00    -0.267 OA
ATOM     14  H   UNL     1     141.588  95.453 139.503  1.00  0.00     0.163 HD
BRANCH  12  15
ATOM     15  C   UNL     1     142.240  96.092 141.436  1.00  0.00     0.116 C 
BRANCH  15  16
ATOM     16  C   UNL     1     141.095  96.932 141.999  1.00  0.00     0.018 C 
ATOM     17  C   UNL     1     141.478  97.697 143.258  1.00  0.00     0.006 C 
ENDBRANCH  15  16
ENDBRANCH  12  15
ENDBRANCH   1  11
BRANCH   6  18
ATOM     18  N   UNL     1     145.257  96.109 137.362  1.00  0.00    -0.396 N 
ATOM     19  H   UNL     1     145.883  95.766 136.621  1.00  0.00     0.156 HD
ATOM     20  H   UNL     1     145.640  96.936 137.810  1.00  0.00     0.156 HD
ENDBRANCH   6  18
BRANCH  10  21
ATOM     21  C   UNL     1     140.635  96.569 133.210  1.00  0.00     0.062 A 
ATOM     22  C   UNL     1     140.201  97.855 132.823  1.00  0.00     0.129 A 
ATOM     23  C   UNL     1     139.721  95.507 133.134  1.00  0.00     0.134 A 
ATOM     24  C   UNL     1     138.886  98.040 132.369  1.00  0.00     0.047 A 
ATOM     25  C   UNL     1     138.416  95.695 132.689  1.00  0.00     0.040 A 
ATOM     26  C   UNL     1     137.998  96.963 132.306  1.00  0.00     0.007 A 
ATOM     27  F   UNL     1     140.099  94.268 133.485  1.00  0.00    -0.206 F 
BRANCH  22  28
ATOM     28  O   UNL     1     141.136  98.857 132.906  1.00  0.00    -0.496 OA
ATOM     29  C   UNL     1     140.965  99.826 133.932  1.00  0.00     0.278 C 
ENDBRANCH  22  28
ENDBRANCH  10  21
TORSDOF 6
ENDMDL
MODEL 3
REMARK VINA RESULT:    -6.935      1.836      3.484
REMARK INTER + INTRA:         -10.294
REMARK INTER:                  -9.475
REMARK INTRA:                  -0.819
REMARK UNBOUND:                -1.129
REMARK SMILES CCCNC(=O)c1nnc2c(-c3c(F)cccc3OC)cccc2c1N
REMARK SMILES IDX 7 1 8 2 9 3 10 4 24 5 25 6 23 7 22 8 21 9 11 10 5 11 4 12
REMARK SMILES IDX 6 13 3 15 2 16 1 17 26 18 12 21 18 22 13 23 17 24 15 25
REMARK SMILES IDX 16 26 14 27 19 28 20 29
REMARK H PARENT 4 14 26 19 26 20
ROOT
ATOM      1  C   UNL     1     142.124  96.763 138.516  1.00  0.00     0.174 A 
ATOM      2  N   UNL     1     143.063  96.379 137.623  1.00  0.00    -0.142 NA
ATOM      3  N   UNL     1     142.949  96.775 136.321  1.00  0.00    -0.149 NA
ATOM      4  C   UNL     1     141.905  97.515 135.891  1.00  0.00     0.103 A 
ATOM      5  C   UNL     1     140.900  97.922 136.800  1.00  0.00     0.028 A 
ATOM      6  C   UNL     1     141.034  97.570 138.170  1.00  0.00     0.075 A 
ATOM      7  C   UNL     1     139.795  98.656 136.303  1.00  0.00     0.013 A 
ATOM      8  C   UNL     1     139.696  99.005 134.961  1.00  0.00     0.002 A 
ATOM      9  C   UNL     1     140.696  98.623 134.081  1.00  0.00     0.011 A 
ATOM     10  C   UNL     1     141.800  97.879 134.535  1.00  0.00     0.017 A 
ENDROOT
BRANCH   1  11
ATOM     11  C   UNL     1     142.373  96.303 139.922  1.00  0.00     0.273 C 
ATOM     12  N   UNL     1     142.733  97.299 140.810  1.00  0.00    -0.351 N 
ATOM     13  O   UNL     1     142.249  95.124 140.245  1.00  0.00    -0.267 OA
ATOM     14  H   UNL     1     142.807  98.245 140.443  1.00  0.00     0.163 HD
BRANCH  12  15
ATOM     15  C   UNL     1     143.041  97.051 142.201  1.00  0.00     0.116 C 
BRANCH  15  16
ATOM     16  C   UNL     1     142.173  97.881 143.144  1.00  0.00     0.018 C 
ATOM     17  C   UNL     1     142.973  98.879 143.969  1.00  0.00     0.006 C 
ENDBRANCH  15  16
ENDBRANCH  12  15
ENDBRANCH   1  11
BRANCH   6  18
ATOM     18  N   UNL     1     140.003  97.881 139.097  1.00  0.00    -0.396 N 
ATOM     19  H   UNL     1     139.342  98.572 138.715  1.00  0.00     0.156 HD
ATOM     20  H   UNL     1     139.513  97.069 139.458  1.00  0.00     0.156 HD
ENDBRANCH   6  18
BRANCH  10  21
ATOM     21  C   UNL     1     142.838  97.485 133.564  1.00  0.00     0.062 A 
ATOM     22  C   UNL     1     142.734  96.302 132.800  1.00  0.00     0.129 A 
ATOM     23  C   UNL     1     143.974  98.290 133.392  1.00  0.00     0.134 A 
ATOM     24  C   UNL     1     143.749  95.966 131.892  1.00  0.00     0.047 A 
ATOM     25  C   UNL     1     144.983  97.951 132.496  1.00  0.00     0.040 A 
ATOM     26  C   UNL     1     144.870  96.788 131.744  1.00  0.00     0.007 A 
ATOM     27  F   UNL     1     144.105  99.426 134.095  1.00  0.00    -0.206 F 
BRANCH  22  28
ATOM     28  O   UNL     1     141.598  95.555 132.997  1.00  0.00    -0.496 OA
ATOM     29  C   UNL     1     141.750  94.294 133.635  1.00  0.00     0.278 C 
ENDBRANCH  22  28
ENDBRANCH  10  21
TORSDOF 6
ENDMDL
MODEL 4
REMARK VINA RESULT:    -6.760      2.516      4.420
REMARK INTER + INTRA:         -10.063
REMARK INTER:                  -9.117
REMARK INTRA:                  -0.946
REMARK UNBOUND:                -1.129
REMARK SMILES CCCNC(=O)c1nnc2c(-c3c(F)cccc3OC)cccc2c1N
REMARK SMILES IDX 7 1 8 2 9 3 10 4 24 5 25 6 23 7 22 8 21 9 11 10 5 11 4 12
REMARK SMILES IDX 6 13 3 15 2 16 1 17 26 18 12 21 18 22 13 23 17 24 15 25
REMARK SMILES IDX 16 26 14 27 19 28 20 29
REMARK H PARENT 4 14 26 19 26 20
ROOT
ATOM      1  C   UNL     1     142.157  96.731 139.227  1.00  0.00     0.174 A 
ATOM      2  N   UNL     1     143.186  96.157 138.565  1.00  0.00    -0.142 NA
ATOM      3  N   UNL     1     143.199  96.180 137.199  1.00  0.00    -0.149 NA
ATOM      4  C   UNL     1     142.195  96.736 136.488  1.00  0.00     0.103 A 
ATOM      5  C   UNL     1     141.098  97.333 137.153  1.00  0.00     0.028 A 
ATOM      6  C   UNL     1     141.098  97.371 138.573  1.00  0.00     0.075 A 
ATOM      7  C   UNL     1     140.040  97.863 136.374  1.00  0.00     0.013 A 
ATOM      8  C   UNL     1     140.072  97.831 134.984  1.00  0.00     0.002 A 
ATOM      9  C   UNL     1     141.161  97.265 134.339  1.00  0.00     0.011 A 
ATOM     10  C   UNL     1     142.222  96.715 135.080  1.00  0.00     0.017 A 
ENDROOT
BRANCH   1  11
ATOM     11  C   UNL     1     142.269  96.677 140.722  1.00  0.00     0.273 C 
ATOM     12  N   UNL     1     143.301  97.424 141.259  1.00  0.00    -0.351 N 
ATOM     13  O   UNL     1     141.485  96.022 141.403  1.00  0.00    -0.267 OA
ATOM     14  H   UNL     1     143.894  97.933 140.609  1.00  0.00     0.163 HD
BRANCH  12  15
ATOM     15  C   UNL     1     143.588  97.479 142.675  1.00  0.00     0.116 C 
BRANCH  15  16
ATOM     16  C   UNL     1     142.631  98.402 143.426  1.00  0.00     0.018 C 
ATOM     17  C   UNL     1     143.347  99.444 144.273  1.00  0.00     0.006 C 
ENDBRANCH  15  16
ENDBRANCH  12  15
ENDBRANCH   1  11
BRANCH   6  18
ATOM     18  N   UNL     1     139.975  97.880 139.280  1.00  0.00    -0.396 N 
ATOM     19  H   UNL     1     139.651  98.775 138.887  1.00  0.00     0.156 HD
ATOM     20  H   UNL     1     139.208  97.221 139.367  1.00  0.00     0.156 HD
ENDBRANCH   6  18
BRANCH  10  21
ATOM     21  C   UNL     1     143.357  96.114 134.355  1.00  0.00     0.062 A 
ATOM     22  C   UNL     1     144.492  96.870 133.988  1.00  0.00     0.129 A 
ATOM     23  C   UNL     1     143.319  94.757 134.002  1.00  0.00     0.134 A 
ATOM     24  C   UNL     1     145.545  96.255 133.295  1.00  0.00     0.047 A 
ATOM     25  C   UNL     1     144.363  94.151 133.308  1.00  0.00     0.040 A 
ATOM     26  C   UNL     1     145.477  94.901 132.955  1.00  0.00     0.007 A 
ATOM     27  F   UNL     1     142.261  94.004 134.340  1.00  0.00    -0.206 F 
BRANCH  22  28
ATOM     28  O   UNL     1     144.485  98.190 134.366  1.00  0.00    -0.496 OA
ATOM     29  C   UNL     1     144.132  99.150 133.379  1.00  0.00     0.278 C 
ENDBRANCH  22  28
ENDBRANCH  10  21
TORSDOF 6
ENDMDL
MODEL 5
REMARK VINA RESULT:    -6.654      2.241      3.910
REMARK INTER + INTRA:          -9.922
REMARK INTER:                  -9.308
REMARK INTRA:                  -0.614
REMARK UNBOUND:                -1.129
REMARK SMILES CCCNC(=O)c1nnc2c(-c3c(F)cccc3OC)cccc2c1N
REMARK SMILES IDX 7 1 8 2 9 3 10 4 24 5 25 6 23 7 22 8 21 9 11 10 5 11 4 12
REMARK SMILES IDX 6 13 3 15 2 16 1 17 26 18 12 21 18 22 13 23 17 24 15 25
REMARK SMILES IDX 16 26 14 27 19 28 20 29
REMARK H PARENT 4 14 26 19 26 20
ROOT
ATOM      1  C   UNL     1     141.994  96.970 137.433  1.00  0.00     0.174 A 
ATOM      2  N   UNL     1     142.734  96.317 136.510  1.00  0.00    -0.142 NA
ATOM      3  N   UNL     1     142.308  96.283 135.212  1.00  0.00    -0.149 NA
ATOM      4  C   UNL     1     141.150  96.860 134.830  1.00  0.00     0.103 A 
ATOM      5  C   UNL     1     140.347  97.540 135.776  1.00  0.00     0.028 A 
ATOM      6  C   UNL     1     140.804  97.636 137.117  1.00  0.00     0.075 A 
ATOM      7  C   UNL     1     139.114  98.091 135.346  1.00  0.00     0.013 A 
ATOM      8  C   UNL     1     138.696  98.002 134.023  1.00  0.00     0.002 A 
ATOM      9  C   UNL     1     139.499  97.354 133.097  1.00  0.00     0.011 A 
ATOM     10  C   UNL     1     140.722  96.781 133.490  1.00  0.00     0.017 A 
ENDROOT
BRANCH   1  11
ATOM     11  C   UNL     1     142.578  96.972 138.814  1.00  0.00     0.273 C 
ATOM     12  N   UNL     1     141.778  96.408 139.790  1.00  0.00    -0.351 N 
ATOM     13  O   UNL     1     143.693  97.435 139.040  1.00  0.00    -0.267 OA
ATOM     14  H   UNL     1     140.872  96.051 139.500  1.00  0.00     0.163 HD
BRANCH  12  15
ATOM     15  C   UNL     1     142.154  96.341 141.185  1.00  0.00     0.116 C 
BRANCH  15  16
ATOM     16  C   UNL     1     140.998  96.703 142.116  1.00  0.00     0.018 C 
ATOM     17  C   UNL     1     141.419  97.601 143.270  1.00  0.00     0.006 C 
ENDBRANCH  15  16
ENDBRANCH  12  15
ENDBRANCH   1  11
BRANCH   6  18
ATOM     18  N   UNL     1     139.987  98.232 138.116  1.00  0.00    -0.396 N 
ATOM     19  H   UNL     1     139.052  97.803 138.149  1.00  0.00     0.156 HD
ATOM     20  H   UNL     1     140.411  98.254 139.038  1.00  0.00     0.156 HD
ENDBRANCH   6  18
BRANCH  10  21
ATOM     21  C   UNL     1     141.542  96.092 132.475  1.00  0.00     0.062 A 
ATOM     22  C   UNL     1     142.431  96.795 131.633  1.00  0.00     0.129 A 
ATOM     23  C   UNL     1     141.437  94.702 132.320  1.00  0.00     0.134 A 
ATOM     24  C   UNL     1     143.187  96.098 130.679  1.00  0.00     0.047 A 
ATOM     25  C   UNL     1     142.183  94.013 131.368  1.00  0.00     0.040 A 
ATOM     26  C   UNL     1     143.060  94.712 130.547  1.00  0.00     0.007 A 
ATOM     27  F   UNL     1     140.608  93.998 133.107  1.00  0.00    -0.206 F 
BRANCH  22  28
ATOM     28  O   UNL     1     142.504  98.152 131.832  1.00  0.00    -0.496 OA
ATOM     29  C   UNL     1     143.734  98.675 132.317  1.00  0.00     0.278 C 
ENDBRANCH  22  28
ENDBRANCH  10  21
TORSDOF 6
ENDMDL
MODEL 6
REMARK VINA RESULT:    -6.621      2.959      4.945
REMARK INTER + INTRA:          -9.879
REMARK INTER:                  -8.821
REMARK INTRA:                  -1.058
REMARK UNBOUND:                -1.129
REMARK SMILES CCCNC(=O)c1nnc2c(-c3c(F)cccc3OC)cccc2c1N
REMARK SMILES IDX 7 1 8 2 9 3 10 4 24 5 25 6 23 7 22 8 21 9 11 10 5 11 4 12
REMARK SMILES IDX 6 13 3 15 2 16 1 17 26 18 12 21 18 22 13 23 17 24 15 25
REMARK SMILES IDX 16 26 14 27 19 28 20 29
REMARK H PARENT 4 14 26 19 26 20
ROOT
ATOM      1  C   UNL     1     143.896  95.776 135.699  1.00  0.00     0.174 A 
ATOM      2  N   UNL     1     143.146  95.678 134.579  1.00  0.00    -0.142 NA
ATOM      3  N   UNL     1     141.925  96.288 134.535  1.00  0.00    -0.149 NA
ATOM      4  C   UNL     1     141.430  96.964 135.594  1.00  0.00     0.103 A 
ATOM      5  C   UNL     1     142.186  97.074 136.784  1.00  0.00     0.028 A 
ATOM      6  C   UNL     1     143.483  96.497 136.826  1.00  0.00     0.075 A 
ATOM      7  C   UNL     1     141.613  97.750 137.890  1.00  0.00     0.013 A 
ATOM      8  C   UNL     1     140.349  98.324 137.819  1.00  0.00     0.002 A 
ATOM      9  C   UNL     1     139.624  98.232 136.642  1.00  0.00     0.011 A 
ATOM     10  C   UNL     1     140.153  97.555 135.528  1.00  0.00     0.017 A 
ENDROOT
BRANCH   1  11
ATOM     11  C   UNL     1     145.232  95.100 135.618  1.00  0.00     0.273 C 
ATOM     12  N   UNL     1     145.196  93.775 135.224  1.00  0.00    -0.351 N 
ATOM     13  O   UNL     1     146.273  95.699 135.874  1.00  0.00    -0.267 OA
ATOM     14  H   UNL     1     144.282  93.372 135.033  1.00  0.00     0.163 HD
BRANCH  12  15
ATOM     15  C   UNL     1     146.376  92.947 135.113  1.00  0.00     0.116 C 
BRANCH  15  16
ATOM     16  C   UNL     1     146.413  91.845 136.170  1.00  0.00     0.018 C 
ATOM     17  C   UNL     1     145.780  90.543 135.699  1.00  0.00     0.006 C 
ENDBRANCH  15  16
ENDBRANCH  12  15
ENDBRANCH   1  11
BRANCH   6  18
ATOM     18  N   UNL     1     144.238  96.507 138.031  1.00  0.00    -0.396 N 
ATOM     19  H   UNL     1     144.221  97.431 138.483  1.00  0.00     0.156 HD
ATOM     20  H   UNL     1     143.980  95.775 138.685  1.00  0.00     0.156 HD
ENDBRANCH   6  18
BRANCH  10  21
ATOM     21  C   UNL     1     139.344  97.472 134.297  1.00  0.00     0.062 A 
ATOM     22  C   UNL     1     139.344  98.505 133.335  1.00  0.00     0.129 A 
ATOM     23  C   UNL     1     138.538  96.348 134.067  1.00  0.00     0.134 A 
ATOM     24  C   UNL     1     138.555  98.384 132.182  1.00  0.00     0.047 A 
ATOM     25  C   UNL     1     137.751  96.233 132.925  1.00  0.00     0.040 A 
ATOM     26  C   UNL     1     137.760  97.252 131.981  1.00  0.00     0.007 A 
ATOM     27  F   UNL     1     138.518  95.342 134.955  1.00  0.00    -0.206 F 
BRANCH  22  28
ATOM     28  O   UNL     1     140.158  99.579 133.602  1.00  0.00    -0.496 OA
ATOM     29  C   UNL     1     139.734 100.851 133.132  1.00  0.00     0.278 C 
ENDBRANCH  22  28
ENDBRANCH  10  21
TORSDOF 6
ENDMDL
MODEL 7
REMARK VINA RESULT:    -6.547      2.132      2.913
REMARK INTER + INTRA:          -9.780
REMARK INTER:                  -8.810
REMARK INTRA:                  -0.970
REMARK UNBOUND:                -1.129
REMARK SMILES CCCNC(=O)c1nnc2c(-c3c(F)cccc3OC)cccc2c1N
REMARK SMILES IDX 7 1 8 2 9 3 10 4 24 5 25 6 23 7 22 8 21 9 11 10 5 11 4 12
REMARK SMILES IDX 6 13 3 15 2 16 1 17 26 18 12 21 18 22 13 23 17 24 15 25
REMARK SMILES IDX 16 26 14 27 19 28 20 29
REMARK H PARENT 4 14 26 19 26 20
ROOT
ATOM      1  C   UNL     1     142.837  96.363 136.103  1.00  0.00     0.174 A 
ATOM      2  N   UNL     1     141.527  96.560 135.834  1.00  0.00    -0.142 NA
ATOM      3  N   UNL     1     141.116  96.647 134.534  1.00  0.00    -0.149 NA
ATOM      4  C   UNL     1     141.988  96.572 133.507  1.00  0.00     0.103 A 
ATOM      5  C   UNL     1     143.368  96.379 133.757  1.00  0.00     0.028 A 
ATOM      6  C   UNL     1     143.804  96.225 135.100  1.00  0.00     0.075 A 
ATOM      7  C   UNL     1     144.258  96.354 132.655  1.00  0.00     0.013 A 
ATOM      8  C   UNL     1     143.805  96.487 131.348  1.00  0.00     0.002 A 
ATOM      9  C   UNL     1     142.450  96.652 131.110  1.00  0.00     0.011 A 
ATOM     10  C   UNL     1     141.538  96.699 132.179  1.00  0.00     0.017 A 
ENDROOT
BRANCH   1  11
ATOM     11  C   UNL     1     143.165  96.245 137.562  1.00  0.00     0.273 C 
ATOM     12  N   UNL     1     142.155  95.724 138.349  1.00  0.00    -0.351 N 
ATOM     13  O   UNL     1     144.260  96.580 138.004  1.00  0.00    -0.267 OA
ATOM     14  H   UNL     1     141.285  95.476 137.885  1.00  0.00     0.163 HD
BRANCH  12  15
ATOM     15  C   UNL     1     142.269  95.558 139.781  1.00  0.00     0.116 C 
BRANCH  15  16
ATOM     16  C   UNL     1     141.882  96.823 140.545  1.00  0.00     0.018 C 
ATOM     17  C   UNL     1     141.163  96.534 141.855  1.00  0.00     0.006 C 
ENDBRANCH  15  16
ENDBRANCH  12  15
ENDBRANCH   1  11
BRANCH   6  18
ATOM     18  N   UNL     1     145.189  96.119 135.400  1.00  0.00    -0.396 N 
ATOM     19  H   UNL     1     145.585  97.021 135.700  1.00  0.00     0.156 HD
ATOM     20  H   UNL     1     145.413  95.384 136.062  1.00  0.00     0.156 HD
ENDBRANCH   6  18
BRANCH  10  21
ATOM     21  C   UNL     1     140.105  96.886 131.882  1.00  0.00     0.062 A 
ATOM     22  C   UNL     1     139.550  98.165 131.663  1.00  0.00     0.129 A 
ATOM     23  C   UNL     1     139.253  95.773 131.825  1.00  0.00     0.134 A 
ATOM     24  C   UNL     1     138.181  98.294 131.388  1.00  0.00     0.047 A 
ATOM     25  C   UNL     1     137.893  95.904 131.559  1.00  0.00     0.040 A 
ATOM     26  C   UNL     1     137.356  97.166 131.339  1.00  0.00     0.007 A 
ATOM     27  F   UNL     1     139.745  94.539 132.021  1.00  0.00    -0.206 F 
BRANCH  22  28
ATOM     28  O   UNL     1     140.427  99.221 131.719  1.00  0.00    -0.496 OA
ATOM     29  C   UNL     1     139.885 100.506 131.989  1.00  0.00     0.278 C 
ENDBRANCH  22  28
ENDBRANCH  10  21
TORSDOF 6
ENDMDL
MODEL 8
REMARK VINA RESULT:    -6.528      3.826      6.146
REMARK INTER + INTRA:          -9.756
REMARK INTER:                  -8.690
REMARK INTRA:                  -1.066
REMARK UNBOUND:                -1.129
REMARK SMILES CCCNC(=O)c1nnc2c(-c3c(F)cccc3OC)cccc2c1N
REMARK SMILES IDX 7 1 8 2 9 3 10 4 24 5 25 6 23 7 22 8 21 9 11 10 5 11 4 12
REMARK SMILES IDX 6 13 3 15 2 16 1 17 26 18 12 21 18 22 13 23 17 24 15 25
REMARK SMILES IDX 16 26 14 27 19 28 20 29
REMARK H PARENT 4 14 26 19 26 20
ROOT
ATOM      1  C   UNL     1     142.951  96.198 137.927  1.00  0.00     0.174 A 
ATOM      2  N   UNL     1     144.295  96.186 138.075  1.00  0.00    -0.142 NA
ATOM      3  N   UNL     1     145.075  95.696 137.067  1.00  0.00    -0.149 NA
ATOM      4  C   UNL     1     144.539  95.193 135.935  1.00  0.00     0.103 A 
ATOM      5  C   UNL     1     143.136  95.180 135.756  1.00  0.00     0.028 A 
ATOM      6  C   UNL     1     142.313  95.741 136.769  1.00  0.00     0.075 A 
ATOM      7  C   UNL     1     142.609  94.600 134.576  1.00  0.00     0.013 A 
ATOM      8  C   UNL     1     143.436  94.074 133.589  1.00  0.00     0.002 A 
ATOM      9  C   UNL     1     144.810  94.111 133.761  1.00  0.00     0.011 A 
ATOM     10  C   UNL     1     145.369  94.664 134.927  1.00  0.00     0.017 A 
ENDROOT
BRANCH   1  11
ATOM     11  C   UNL     1     142.201  96.794 139.081  1.00  0.00     0.273 C 
ATOM     12  N   UNL     1     142.632  96.391 140.331  1.00  0.00    -0.351 N 
ATOM     13  O   UNL     1     141.282  97.590 138.909  1.00  0.00    -0.267 OA
ATOM     14  H   UNL     1     143.404  95.730 140.366  1.00  0.00     0.163 HD
BRANCH  12  15
ATOM     15  C   UNL     1     142.019  96.834 141.564  1.00  0.00     0.116 C 
BRANCH  15  16
ATOM     16  C   UNL     1     143.002  97.576 142.468  1.00  0.00     0.018 C 
ATOM     17  C   UNL     1     142.324  98.294 143.626  1.00  0.00     0.006 C 
ENDBRANCH  15  16
ENDBRANCH  12  15
ENDBRANCH   1  11
BRANCH   6  18
ATOM     18  N   UNL     1     140.897  95.667 136.669  1.00  0.00    -0.396 N 
ATOM     19  H   UNL     1     140.483  95.176 137.474  1.00  0.00     0.156 HD
ATOM     20  H   UNL     1     140.446  96.564 136.518  1.00  0.00     0.156 HD
ENDBRANCH   6  18
BRANCH  10  21
ATOM     21  C   UNL     1     146.837  94.676 135.074  1.00  0.00     0.062 A 
ATOM     22  C   UNL     1     147.632  95.711 134.538  1.00  0.00     0.129 A 
ATOM     23  C   UNL     1     147.478  93.628 135.753  1.00  0.00     0.134 A 
ATOM     24  C   UNL     1     149.025  95.676 134.699  1.00  0.00     0.047 A 
ATOM     25  C   UNL     1     148.861  93.593 135.906  1.00  0.00     0.040 A 
ATOM     26  C   UNL     1     149.635  94.619 135.379  1.00  0.00     0.007 A 
ATOM     27  F   UNL     1     146.755  92.630 136.284  1.00  0.00    -0.206 F 
BRANCH  22  28
ATOM     28  O   UNL     1     146.957  96.718 133.892  1.00  0.00    -0.496 OA
ATOM     29  C   UNL     1     147.171  96.855 132.494  1.00  0.00     0.278 C 
ENDBRANCH  22  28
ENDBRANCH  10  21
TORSDOF 6
ENDMDL
MODEL 9
REMARK VINA RESULT:    -6.422      2.861      5.303
REMARK INTER + INTRA:          -9.615
REMARK INTER:                  -8.580
REMARK INTRA:                  -1.035
REMARK UNBOUND:                -1.129
REMARK SMILES CCCNC(=O)c1nnc2c(-c3c(F)cccc3OC)cccc2c1N
REMARK SMILES IDX 7 1 8 2 9 3 10 4 24 5 25 6 23 7 22 8 21 9 11 10 5 11 4 12
REMARK SMILES IDX 6 13 3 15 2 16 1 17 26 18 12 21 18 22 13 23 17 24 15 25
REMARK SMILES IDX 16 26 14 27 19 28 20 29
REMARK H PARENT 4 14 26 19 26 20
ROOT
ATOM      1  C   UNL     1     143.982  95.975 135.591  1.00  0.00     0.174 A 
ATOM      2  N   UNL     1     143.217  95.881 134.481  1.00  0.00    -0.142 NA
ATOM      3  N   UNL     1     141.969  96.438 134.479  1.00  0.00    -0.149 NA
ATOM      4  C   UNL     1     141.465  97.055 135.568  1.00  0.00     0.103 A 
ATOM      5  C   UNL     1     142.238  97.157 136.749  1.00  0.00     0.028 A 
ATOM      6  C   UNL     1     143.560  96.637 136.749  1.00  0.00     0.075 A 
ATOM      7  C   UNL     1     141.657  97.769 137.888  1.00  0.00     0.013 A 
ATOM      8  C   UNL     1     140.367  98.289 137.858  1.00  0.00     0.002 A 
ATOM      9  C   UNL     1     139.625  98.205 136.690  1.00  0.00     0.011 A 
ATOM     10  C   UNL     1     140.163  97.590 135.546  1.00  0.00     0.017 A 
ENDROOT
BRANCH   1  11
ATOM     11  C   UNL     1     145.345  95.361 135.463  1.00  0.00     0.273 C 
ATOM     12  N   UNL     1     146.209  96.024 134.612  1.00  0.00    -0.351 N 
ATOM     13  O   UNL     1     145.656  94.350 136.087  1.00  0.00    -0.267 OA
ATOM     14  H   UNL     1     145.855  96.854 134.144  1.00  0.00     0.163 HD
BRANCH  12  15
ATOM     15  C   UNL     1     147.555  95.573 134.337  1.00  0.00     0.116 C 
BRANCH  15  16
ATOM     16  C   UNL     1     148.235  96.405 133.251  1.00  0.00     0.018 C 
ATOM     17  C   UNL     1     147.406  96.518 131.979  1.00  0.00     0.006 C 
ENDBRANCH  15  16
ENDBRANCH  12  15
ENDBRANCH   1  11
BRANCH   6  18
ATOM     18  N   UNL     1     144.335  96.640 137.940  1.00  0.00    -0.396 N 
ATOM     19  H   UNL     1     143.875  96.112 138.695  1.00  0.00     0.156 HD
ATOM     20  H   UNL     1     145.293  96.331 137.810  1.00  0.00     0.156 HD
ENDBRANCH   6  18
BRANCH  10  21
ATOM     21  C   UNL     1     139.336  97.514 134.326  1.00  0.00     0.062 A 
ATOM     22  C   UNL     1     139.302  98.563 133.382  1.00  0.00     0.129 A 
ATOM     23  C   UNL     1     138.546  96.380 134.090  1.00  0.00     0.134 A 
ATOM     24  C   UNL     1     138.497  98.447 132.239  1.00  0.00     0.047 A 
ATOM     25  C   UNL     1     137.742  96.270 132.958  1.00  0.00     0.040 A 
ATOM     26  C   UNL     1     137.719  97.304 132.031  1.00  0.00     0.007 A 
ATOM     27  F   UNL     1     138.557  95.359 134.961  1.00  0.00    -0.206 F 
BRANCH  22  28
ATOM     28  O   UNL     1     140.101  99.646 133.654  1.00  0.00    -0.496 OA
ATOM     29  C   UNL     1     139.562 100.936 133.398  1.00  0.00     0.278 C 
ENDBRANCH  22  28
ENDBRANCH  10  21
TORSDOF 6
ENDMDL
MODEL 10
REMARK VINA RESULT:    -6.397      3.939      6.418
REMARK INTER + INTRA:          -9.582
REMARK INTER:                  -9.072
REMARK INTRA:                  -0.510
REMARK UNBOUND:                -1.129
REMARK SMILES CCCNC(=O)c1nnc2c(-c3c(F)cccc3OC)cccc2c1N
REMARK SMILES IDX 7 1 8 2 9 3 10 4 24 5 25 6 23 7 22 8 21 9 11 10 5 11 4 12
REMARK SMILES IDX 6 13 3 15 2 16 1 17 26 18 12 21 18 22 13 23 17 24 15 25
REMARK SMILES IDX 16 26 14 27 19 28 20 29
REMARK H PARENT 4 14 26 19 26 20
ROOT
ATOM      1  C   UNL     1     145.085  98.657 142.387  1.00  0.00     0.174 A 
ATOM      2  N   UNL     1     145.349  98.646 141.061  1.00  0.00    -0.142 NA
ATOM      3  N   UNL     1     144.438  98.100 140.202  1.00  0.00    -0.149 NA
ATOM      4  C   UNL     1     143.291  97.542 140.643  1.00  0.00     0.103 A 
ATOM      5  C   UNL     1     142.992  97.528 142.026  1.00  0.00     0.028 A 
ATOM      6  C   UNL     1     143.900  98.145 142.928  1.00  0.00     0.075 A 
ATOM      7  C   UNL     1     141.802  96.891 142.456  1.00  0.00     0.013 A 
ATOM      8  C   UNL     1     140.918  96.311 141.552  1.00  0.00     0.002 A 
ATOM      9  C   UNL     1     141.206  96.349 140.197  1.00  0.00     0.011 A 
ATOM     10  C   UNL     1     142.386  96.959 139.735  1.00  0.00     0.017 A 
ENDROOT
BRANCH   1  11
ATOM     11  C   UNL     1     146.138  99.315 143.228  1.00  0.00     0.273 C 
ATOM     12  N   UNL     1     145.928 100.657 143.487  1.00  0.00    -0.351 N 
ATOM     13  O   UNL     1     147.104  98.689 143.656  1.00  0.00    -0.267 OA
ATOM     14  H   UNL     1     145.095 101.082 143.087  1.00  0.00     0.163 HD
BRANCH  12  15
ATOM     15  C   UNL     1     146.843 101.471 144.255  1.00  0.00     0.116 C 
BRANCH  15  16
ATOM     16  C   UNL     1     148.120 101.795 143.482  1.00  0.00     0.018 C 
ATOM     17  C   UNL     1     148.528 103.257 143.588  1.00  0.00     0.006 C 
ENDBRANCH  15  16
ENDBRANCH  12  15
ENDBRANCH   1  11
BRANCH   6  18
ATOM     18  N   UNL     1     143.683  98.073 144.331  1.00  0.00    -0.396 N 
ATOM     19  H   UNL     1     144.472  97.625 144.817  1.00  0.00     0.156 HD
ATOM     20  H   UNL     1     143.449  98.964 144.758  1.00  0.00     0.156 HD
ENDBRANCH   6  18
BRANCH  10  21
ATOM     21  C   UNL     1     142.659  96.970 138.285  1.00  0.00     0.062 A 
ATOM     22  C   UNL     1     141.932  97.791 137.396  1.00  0.00     0.129 A 
ATOM     23  C   UNL     1     143.657  96.137 137.757  1.00  0.00     0.134 A 
ATOM     24  C   UNL     1     142.224  97.763 136.024  1.00  0.00     0.047 A 
ATOM     25  C   UNL     1     143.941  96.108 136.395  1.00  0.00     0.040 A 
ATOM     26  C   UNL     1     143.224  96.922 135.527  1.00  0.00     0.007 A 
ATOM     27  F   UNL     1     144.375  95.348 138.572  1.00  0.00    -0.206 F 
BRANCH  22  28
ATOM     28  O   UNL     1     140.974  98.594 137.964  1.00  0.00    -0.496 OA
ATOM     29  C   UNL     1     139.661  98.525 137.424  1.00  0.00     0.278 C 
ENDBRANCH  22  28
ENDBRANCH  10  21
TORSDOF 6
ENDMDL
MODEL 11
REMARK VINA RESULT:    -6.241      3.544      5.974
REMARK INTER + INTRA:          -9.376
REMARK INTER:                  -8.354
REMARK INTRA:                  -1.022
REMARK UNBOUND:                -1.129
REMARK SMILES CCCNC(=O)c1nnc2c(-c3c(F)cccc3OC)cccc2c1N
REMARK SMILES IDX 7 1 8 2 9 3 10 4 24 5 25 6 23 7 22 8 21 9 11 10 5 11 4 12
REMARK SMILES IDX 6 13 3 15 2 16 1 17 26 18 12 21 18 22 13 23 17 24 15 25
REMARK SMILES IDX 16 26 14 27 19 28 20 29
REMARK H PARENT 4 14 26 19 26 20
ROOT
ATOM      1  C   UNL     1     142.909  96.175 137.884  1.00  0.00     0.174 A 
ATOM      2  N   UNL     1     144.255  96.183 138.009  1.00  0.00    -0.142 NA
ATOM      3  N   UNL     1     145.026  95.714 136.983  1.00  0.00    -0.149 NA
ATOM      4  C   UNL     1     144.479  95.212 135.856  1.00  0.00     0.103 A 
ATOM      5  C   UNL     1     143.073  95.178 135.701  1.00  0.00     0.028 A 
ATOM      6  C   UNL     1     142.258  95.717 136.732  1.00  0.00     0.075 A 
ATOM      7  C   UNL     1     142.535  94.599 134.525  1.00  0.00     0.013 A 
ATOM      8  C   UNL     1     143.354  94.094 133.520  1.00  0.00     0.002 A 
ATOM      9  C   UNL     1     144.730  94.153 133.669  1.00  0.00     0.011 A 
ATOM     10  C   UNL     1     145.300  94.705 134.830  1.00  0.00     0.017 A 
ENDROOT
BRANCH   1  11
ATOM     11  C   UNL     1     142.169  96.749 139.055  1.00  0.00     0.273 C 
ATOM     12  N   UNL     1     142.621  96.334 140.294  1.00  0.00    -0.351 N 
ATOM     13  O   UNL     1     141.241  97.538 138.905  1.00  0.00    -0.267 OA
ATOM     14  H   UNL     1     143.398  95.679 140.310  1.00  0.00     0.163 HD
BRANCH  12  15
ATOM     15  C   UNL     1     142.020  96.754 141.541  1.00  0.00     0.116 C 
BRANCH  15  16
ATOM     16  C   UNL     1     142.992  97.541 142.417  1.00  0.00     0.018 C 
ATOM     17  C   UNL     1     142.310  98.257 143.574  1.00  0.00     0.006 C 
ENDBRANCH  15  16
ENDBRANCH  12  15
ENDBRANCH   1  11
BRANCH   6  18
ATOM     18  N   UNL     1     140.842  95.621 136.656  1.00  0.00    -0.396 N 
ATOM     19  H   UNL     1     140.506  95.703 135.686  1.00  0.00     0.156 HD
ATOM     20  H   UNL     1     140.460  94.795 137.106  1.00  0.00     0.156 HD
ENDBRANCH   6  18
BRANCH  10  21
ATOM     21  C   UNL     1     146.770  94.739 134.952  1.00  0.00     0.062 A 
ATOM     22  C   UNL     1     147.480  93.758 135.676  1.00  0.00     0.129 A 
ATOM     23  C   UNL     1     147.496  95.777 134.349  1.00  0.00     0.134 A 
ATOM     24  C   UNL     1     148.878  93.834 135.769  1.00  0.00     0.047 A 
ATOM     25  C   UNL     1     148.882  95.854 134.448  1.00  0.00     0.040 A 
ATOM     26  C   UNL     1     149.574  94.881 135.158  1.00  0.00     0.007 A 
ATOM     27  F   UNL     1     146.856  96.725 133.646  1.00  0.00    -0.206 F 
BRANCH  22  28
ATOM     28  O   UNL     1     146.725  92.758 136.239  1.00  0.00    -0.496 OA
ATOM     29  C   UNL     1     147.154  91.419 136.030  1.00  0.00     0.278 C 
ENDBRANCH  22  28
ENDBRANCH  10  21
TORSDOF 6
ENDMDL
MODEL 12
REMARK VINA RESULT:    -6.213      2.512      4.483
REMARK INTER + INTRA:          -9.340
REMARK INTER:                  -8.263
REMARK INTRA:                  -1.077
REMARK UNBOUND:                -1.129
REMARK SMILES CCCNC(=O)c1nnc2c(-c3c(F)cccc3OC)cccc2c1N
REMARK SMILES IDX 7 1 8 2 9 3 10 4 24 5 25 6 23 7 22 8 21 9 11 10 5 11 4 12
REMARK SMILES IDX 6 13 3 15 2 16 1 17 26 18 12 21 18 22 13 23 17 24 15 25
REMARK SMILES IDX 16 26 14 27 19 28 20 29
REMARK H PARENT 4 14 26 19 26 20
ROOT
ATOM      1  C   UNL     1     143.892  96.021 135.898  1.00  0.00     0.174 A 
ATOM      2  N   UNL     1     143.478  96.215 134.626  1.00  0.00    -0.142 NA
ATOM      3  N   UNL     1     142.336  96.929 134.395  1.00  0.00    -0.149 NA
ATOM      4  C   UNL     1     141.590  97.422 135.406  1.00  0.00     0.103 A 
ATOM      5  C   UNL     1     141.991  97.224 136.748  1.00  0.00     0.028 A 
ATOM      6  C   UNL     1     143.207  96.536 137.004  1.00  0.00     0.075 A 
ATOM      7  C   UNL     1     141.156  97.714 137.783  1.00  0.00     0.013 A 
ATOM      8  C   UNL     1     139.979  98.402 137.508  1.00  0.00     0.002 A 
ATOM      9  C   UNL     1     139.606  98.611 136.190  1.00  0.00     0.011 A 
ATOM     10  C   UNL     1     140.400  98.125 135.136  1.00  0.00     0.017 A 
ENDROOT
BRANCH   1  11
ATOM     11  C   UNL     1     145.176  95.258 136.027  1.00  0.00     0.273 C 
ATOM     12  N   UNL     1     145.144  93.967 135.532  1.00  0.00    -0.351 N 
ATOM     13  O   UNL     1     146.178  95.763 136.527  1.00  0.00    -0.267 OA
ATOM     14  H   UNL     1     144.265  93.644 135.135  1.00  0.00     0.163 HD
BRANCH  12  15
ATOM     15  C   UNL     1     146.273  93.065 135.589  1.00  0.00     0.116 C 
BRANCH  15  16
ATOM     16  C   UNL     1     145.861  91.608 135.394  1.00  0.00     0.018 C 
ATOM     17  C   UNL     1     144.669  91.443 134.462  1.00  0.00     0.006 C 
ENDBRANCH  15  16
ENDBRANCH  12  15
ENDBRANCH   1  11
BRANCH   6  18
ATOM     18  N   UNL     1     143.599  96.239 138.338  1.00  0.00    -0.396 N 
ATOM     19  H   UNL     1     143.621  95.224 138.511  1.00  0.00     0.156 HD
ATOM     20  H   UNL     1     144.471  96.676 138.618  1.00  0.00     0.156 HD
ENDBRANCH   6  18
BRANCH  10  21
ATOM     21  C   UNL     1     139.961  98.362 133.748  1.00  0.00     0.062 A 
ATOM     22  C   UNL     1     139.182  97.421 133.042  1.00  0.00     0.129 A 
ATOM     23  C   UNL     1     140.330  99.546 133.093  1.00  0.00     0.134 A 
ATOM     24  C   UNL     1     138.792  97.688 131.721  1.00  0.00     0.047 A 
ATOM     25  C   UNL     1     139.947  99.806 131.780  1.00  0.00     0.040 A 
ATOM     26  C   UNL     1     139.176  98.877 131.094  1.00  0.00     0.007 A 
ATOM     27  F   UNL     1     141.064 100.469 133.734  1.00  0.00    -0.206 F 
BRANCH  22  28
ATOM     28  O   UNL     1     138.838  96.284 133.731  1.00  0.00    -0.496 OA
ATOM     29  C   UNL     1     137.477  96.138 134.112  1.00  0.00     0.278 C 
ENDBRANCH  22  28
ENDBRANCH  10  21
TORSDOF 6
ENDMDL
MODEL 13
REMARK VINA RESULT:    -6.066      2.376      4.631
REMARK INTER + INTRA:          -9.145
REMARK INTER:                  -8.126
REMARK INTRA:                  -1.020
REMARK UNBOUND:                -1.129
REMARK SMILES CCCNC(=O)c1nnc2c(-c3c(F)cccc3OC)cccc2c1N
REMARK SMILES IDX 7 1 8 2 9 3 10 4 24 5 25 6 23 7 22 8 21 9 11 10 5 11 4 12
REMARK SMILES IDX 6 13 3 15 2 16 1 17 26 18 12 21 18 22 13 23 17 24 15 25
REMARK SMILES IDX 16 26 14 27 19 28 20 29
REMARK H PARENT 4 14 26 19 26 20
ROOT
ATOM      1  C   UNL     1     144.149  96.222 136.370  1.00  0.00     0.174 A 
ATOM      2  N   UNL     1     143.760  96.255 135.076  1.00  0.00    -0.142 NA
ATOM      3  N   UNL     1     142.571  96.844 134.749  1.00  0.00    -0.149 NA
ATOM      4  C   UNL     1     141.757  97.369 135.689  1.00  0.00     0.103 A 
ATOM      5  C   UNL     1     142.131  97.338 137.053  1.00  0.00     0.028 A 
ATOM      6  C   UNL     1     143.391  96.784 137.404  1.00  0.00     0.075 A 
ATOM      7  C   UNL     1     141.228  97.856 138.014  1.00  0.00     0.013 A 
ATOM      8  C   UNL     1     140.008  98.411 137.645  1.00  0.00     0.002 A 
ATOM      9  C   UNL     1     139.659  98.459 136.305  1.00  0.00     0.011 A 
ATOM     10  C   UNL     1     140.522  97.940 135.323  1.00  0.00     0.017 A 
ENDROOT
BRANCH   1  11
ATOM     11  C   UNL     1     145.487  95.586 136.603  1.00  0.00     0.273 C 
ATOM     12  N   UNL     1     146.368  95.667 135.542  1.00  0.00    -0.351 N 
ATOM     13  O   UNL     1     145.766  95.048 137.672  1.00  0.00    -0.267 OA
ATOM     14  H   UNL     1     146.041  96.136 134.701  1.00  0.00     0.163 HD
BRANCH  12  15
ATOM     15  C   UNL     1     147.695  95.091 135.564  1.00  0.00     0.116 C 
BRANCH  15  16
ATOM     16  C   UNL     1     148.024  94.343 134.273  1.00  0.00     0.018 C 
ATOM     17  C   UNL     1     148.369  95.270 133.117  1.00  0.00     0.006 C 
ENDBRANCH  15  16
ENDBRANCH  12  15
ENDBRANCH   1  11
BRANCH   6  18
ATOM     18  N   UNL     1     143.765  96.653 138.768  1.00  0.00    -0.396 N 
ATOM     19  H   UNL     1     144.529  97.296 139.018  1.00  0.00     0.156 HD
ATOM     20  H   UNL     1     142.990  96.737 139.419  1.00  0.00     0.156 HD
ENDBRANCH   6  18
BRANCH  10  21
ATOM     21  C   UNL     1     140.108  98.002 133.909  1.00  0.00     0.062 A 
ATOM     22  C   UNL     1     139.506  96.902 133.259  1.00  0.00     0.129 A 
ATOM     23  C   UNL     1     140.322  99.175 133.170  1.00  0.00     0.134 A 
ATOM     24  C   UNL     1     139.134  97.007 131.911  1.00  0.00     0.047 A 
ATOM     25  C   UNL     1     139.957  99.274 131.831  1.00  0.00     0.040 A 
ATOM     26  C   UNL     1     139.361  98.189 131.201  1.00  0.00     0.007 A 
ATOM     27  F   UNL     1     140.884 100.245 133.755  1.00  0.00    -0.206 F 
BRANCH  22  28
ATOM     28  O   UNL     1     139.309  95.782 134.028  1.00  0.00    -0.496 OA
ATOM     29  C   UNL     1     140.023  94.607 133.665  1.00  0.00     0.278 C 
ENDBRANCH  22  28
ENDBRANCH  10  21
TORSDOF 6
ENDMDL
MODEL 14
REMARK VINA RESULT:    -6.047      3.729      6.328
REMARK INTER + INTRA:          -9.121
REMARK INTER:                  -8.583
REMARK INTRA:                  -0.538
REMARK UNBOUND:                -1.129
REMARK SMILES CCCNC(=O)c1nnc2c(-c3c(F)cccc3OC)cccc2c1N
REMARK SMILES IDX 7 1 8 2 9 3 10 4 24 5 25 6 23 7 22 8 21 9 11 10 5 11 4 12
REMARK SMILES IDX 6 13 3 15 2 16 1 17 26 18 12 21 18 22 13 23 17 24 15 25
REMARK SMILES IDX 16 26 14 27 19 28 20 29
REMARK H PARENT 4 14 26 19 26 20
ROOT
ATOM      1  C   UNL     1     145.176  98.651 142.321  1.00  0.00     0.174 A 
ATOM      2  N   UNL     1     145.402  98.789 140.995  1.00  0.00    -0.142 NA
ATOM      3  N   UNL     1     144.509  98.261 140.106  1.00  0.00    -0.149 NA
ATOM      4  C   UNL     1     143.419  97.577 140.515  1.00  0.00     0.103 A 
ATOM      5  C   UNL     1     143.163  97.406 141.896  1.00  0.00     0.028 A 
ATOM      6  C   UNL     1     144.049  98.000 142.834  1.00  0.00     0.075 A 
ATOM      7  C   UNL     1     142.036  96.641 142.285  1.00  0.00     0.013 A 
ATOM      8  C   UNL     1     141.172  96.085 141.348  1.00  0.00     0.002 A 
ATOM      9  C   UNL     1     141.417  96.277 139.998  1.00  0.00     0.011 A 
ATOM     10  C   UNL     1     142.535  97.017 139.573  1.00  0.00     0.017 A 
ENDROOT
BRANCH   1  11
ATOM     11  C   UNL     1     146.202  99.303 143.200  1.00  0.00     0.273 C 
ATOM     12  N   UNL     1     146.013 100.655 143.418  1.00  0.00    -0.351 N 
ATOM     13  O   UNL     1     147.128  98.664 143.691  1.00  0.00    -0.267 OA
ATOM     14  H   UNL     1     145.213 101.091 142.966  1.00  0.00     0.163 HD
BRANCH  12  15
ATOM     15  C   UNL     1     146.909 101.465 144.213  1.00  0.00     0.116 C 
BRANCH  15  16
ATOM     16  C   UNL     1     148.206 101.790 143.476  1.00  0.00     0.018 C 
ATOM     17  C   UNL     1     148.579 103.264 143.545  1.00  0.00     0.006 C 
ENDBRANCH  15  16
ENDBRANCH  12  15
ENDBRANCH   1  11
BRANCH   6  18
ATOM     18  N   UNL     1     143.878  97.776 144.227  1.00  0.00    -0.396 N 
ATOM     19  H   UNL     1     143.951  96.777 144.465  1.00  0.00     0.156 HD
ATOM     20  H   UNL     1     144.488  98.336 144.813  1.00  0.00     0.156 HD
ENDBRANCH   6  18
BRANCH  10  21
ATOM     21  C   UNL     1     142.764  97.189 138.126  1.00  0.00     0.062 A 
ATOM     22  C   UNL     1     143.811  96.524 137.452  1.00  0.00     0.129 A 
ATOM     23  C   UNL     1     141.935  98.045 137.386  1.00  0.00     0.134 A 
ATOM     24  C   UNL     1     143.993  96.723 136.076  1.00  0.00     0.047 A 
ATOM     25  C   UNL     1     142.121  98.246 136.021  1.00  0.00     0.040 A 
ATOM     26  C   UNL     1     143.151  97.584 135.365  1.00  0.00     0.007 A 
ATOM     27  F   UNL     1     140.924  98.689 137.989  1.00  0.00    -0.206 F 
BRANCH  22  28
ATOM     28  O   UNL     1     144.588  95.690 138.219  1.00  0.00    -0.496 OA
ATOM     29  C   UNL     1     145.839  95.285 137.680  1.00  0.00     0.278 C 
ENDBRANCH  22  28
ENDBRANCH  10  21
TORSDOF 6
ENDMDL
MODEL 15
REMARK VINA RESULT:    -6.015      2.412      4.505
REMARK INTER + INTRA:          -9.078
REMARK INTER:                  -8.111
REMARK INTRA:                  -0.966
REMARK UNBOUND:                -1.129
REMARK SMILES CCCNC(=O)c1nnc2c(-c3c(F)cccc3OC)cccc2c1N
REMARK SMILES IDX 7 1 8 2 9 3 10 4 24 5 25 6 23 7 22 8 21 9 11 10 5 11 4 12
REMARK SMILES IDX 6 13 3 15 2 16 1 17 26 18 12 21 18 22 13 23 17 24 15 25
REMARK SMILES IDX 16 26 14 27 19 28 20 29
REMARK H PARENT 4 14 26 19 26 20
ROOT
ATOM      1  C   UNL     1     142.917  97.118 138.930  1.00  0.00     0.174 A 
ATOM      2  N   UNL     1     144.087  96.806 138.331  1.00  0.00    -0.142 NA
ATOM      3  N   UNL     1     144.135  96.703 136.969  1.00  0.00    -0.149 NA
ATOM      4  C   UNL     1     143.036  96.875 136.205  1.00  0.00     0.103 A 
ATOM      5  C   UNL     1     141.794  97.190 136.805  1.00  0.00     0.028 A 
ATOM      6  C   UNL     1     141.739  97.360 138.214  1.00  0.00     0.075 A 
ATOM      7  C   UNL     1     140.653  97.315 135.974  1.00  0.00     0.013 A 
ATOM      8  C   UNL     1     140.736  97.163 134.594  1.00  0.00     0.002 A 
ATOM      9  C   UNL     1     141.960  96.878 134.012  1.00  0.00     0.011 A 
ATOM     10  C   UNL     1     143.111  96.730 134.806  1.00  0.00     0.017 A 
ENDROOT
BRANCH   1  11
ATOM     11  C   UNL     1     142.994  97.241 140.423  1.00  0.00     0.273 C 
ATOM     12  N   UNL     1     144.063  97.977 140.896  1.00  0.00    -0.351 N 
ATOM     13  O   UNL     1     142.151  96.728 141.155  1.00  0.00    -0.267 OA
ATOM     14  H   UNL     1     144.704  98.362 140.207  1.00  0.00     0.163 HD
BRANCH  12  15
ATOM     15  C   UNL     1     144.324  98.186 142.304  1.00  0.00     0.116 C 
BRANCH  15  16
ATOM     16  C   UNL     1     145.426  99.216 142.543  1.00  0.00     0.018 C 
ATOM     17  C   UNL     1     146.615  99.047 141.607  1.00  0.00     0.006 C 
ENDBRANCH  15  16
ENDBRANCH  12  15
ENDBRANCH   1  11
BRANCH   6  18
ATOM     18  N   UNL     1     140.496  97.588 138.864  1.00  0.00    -0.396 N 
ATOM     19  H   UNL     1     140.351  98.586 139.071  1.00  0.00     0.156 HD
ATOM     20  H   UNL     1     139.697  97.196 138.375  1.00  0.00     0.156 HD
ENDBRANCH   6  18
BRANCH  10  21
ATOM     21  C   UNL     1     144.393  96.417 134.147  1.00  0.00     0.062 A 
ATOM     22  C   UNL     1     144.911  95.104 134.109  1.00  0.00     0.129 A 
ATOM     23  C   UNL     1     145.138  97.443 133.546  1.00  0.00     0.134 A 
ATOM     24  C   UNL     1     146.137  94.856 133.474  1.00  0.00     0.047 A 
ATOM     25  C   UNL     1     146.357  97.195 132.923  1.00  0.00     0.040 A 
ATOM     26  C   UNL     1     146.857  95.899 132.886  1.00  0.00     0.007 A 
ATOM     27  F   UNL     1     144.675  98.703 133.555  1.00  0.00    -0.206 F 
BRANCH  22  28
ATOM     28  O   UNL     1     144.140  94.134 134.701  1.00  0.00    -0.496 OA
ATOM     29  C   UNL     1     144.497  92.780 134.462  1.00  0.00     0.278 C 
ENDBRANCH  22  28
ENDBRANCH  10  21
TORSDOF 6
ENDMDL
MODEL 16
REMARK VINA RESULT:    -5.959      3.597      4.497
REMARK INTER + INTRA:          -9.004
REMARK INTER:                  -8.024
REMARK INTRA:                  -0.980
REMARK UNBOUND:                -1.129
REMARK SMILES CCCNC(=O)c1nnc2c(-c3c(F)cccc3OC)cccc2c1N
REMARK SMILES IDX 7 1 8 2 9 3 10 4 24 5 25 6 23 7 22 8 21 9 11 10 5 11 4 12
REMARK SMILES IDX 6 13 3 15 2 16 1 17 26 18 12 21 18 22 13 23 17 24 15 25
REMARK SMILES IDX 16 26 14 27 19 28 20 29
REMARK H PARENT 4 14 26 19 26 20
ROOT
ATOM      1  C   UNL     1     144.713  95.448 135.834  1.00  0.00     0.174 A 
ATOM      2  N   UNL     1     144.277  96.727 135.798  1.00  0.00    -0.142 NA
ATOM      3  N   UNL     1     143.154  97.031 135.083  1.00  0.00    -0.149 NA
ATOM      4  C   UNL     1     142.481  96.093 134.384  1.00  0.00     0.103 A 
ATOM      5  C   UNL     1     142.920  94.748 134.392  1.00  0.00     0.028 A 
ATOM      6  C   UNL     1     144.051  94.403 135.179  1.00  0.00     0.075 A 
ATOM      7  C   UNL     1     142.216  93.801 133.608  1.00  0.00     0.013 A 
ATOM      8  C   UNL     1     141.099  94.158 132.860  1.00  0.00     0.002 A 
ATOM      9  C   UNL     1     140.662  95.473 132.876  1.00  0.00     0.011 A 
ATOM     10  C   UNL     1     141.344  96.444 133.630  1.00  0.00     0.017 A 
ENDROOT
BRANCH   1  11
ATOM     11  C   UNL     1     145.931  95.227 136.681  1.00  0.00     0.273 C 
ATOM     12  N   UNL     1     147.133  95.267 136.000  1.00  0.00    -0.351 N 
ATOM     13  O   UNL     1     145.848  95.038 137.892  1.00  0.00    -0.267 OA
ATOM     14  H   UNL     1     147.095  95.433 134.997  1.00  0.00     0.163 HD
BRANCH  12  15
ATOM     15  C   UNL     1     148.415  95.051 136.635  1.00  0.00     0.116 C 
BRANCH  15  16
ATOM     16  C   UNL     1     149.114  96.361 136.993  1.00  0.00     0.018 C 
ATOM     17  C   UNL     1     149.342  96.527 138.488  1.00  0.00     0.006 C 
ENDBRANCH  15  16
ENDBRANCH  12  15
ENDBRANCH   1  11
BRANCH   6  18
ATOM     18  N   UNL     1     144.578  93.083 135.144  1.00  0.00    -0.396 N 
ATOM     19  H   UNL     1     145.538  93.065 134.773  1.00  0.00     0.156 HD
ATOM     20  H   UNL     1     144.519  92.592 136.031  1.00  0.00     0.156 HD
ENDBRANCH   6  18
BRANCH  10  21
ATOM     21  C   UNL     1     140.851  97.834 133.611  1.00  0.00     0.062 A 
ATOM     22  C   UNL     1     141.359  98.794 132.709  1.00  0.00     0.129 A 
ATOM     23  C   UNL     1     139.857  98.233 134.517  1.00  0.00     0.134 A 
ATOM     24  C   UNL     1     140.862 100.105 132.732  1.00  0.00     0.047 A 
ATOM     25  C   UNL     1     139.369  99.536 134.541  1.00  0.00     0.040 A 
ATOM     26  C   UNL     1     139.872 100.474 133.647  1.00  0.00     0.007 A 
ATOM     27  F   UNL     1     139.343  97.347 135.384  1.00  0.00    -0.206 F 
BRANCH  22  28
ATOM     28  O   UNL     1     142.323  98.350 131.837  1.00  0.00    -0.496 OA
ATOM     29  C   UNL     1     143.644  98.841 132.020  1.00  0.00     0.278 C 
ENDBRANCH  22  28
ENDBRANCH  10  21
TORSDOF 6
ENDMDL
MODEL 17
REMARK VINA RESULT:    -5.882      4.291      7.617
REMARK INTER + INTRA:          -8.902
REMARK INTER:                  -7.771
REMARK INTRA:                  -1.131
REMARK UNBOUND:                -1.129
REMARK SMILES CCCNC(=O)c1nnc2c(-c3c(F)cccc3OC)cccc2c1N
REMARK SMILES IDX 7 1 8 2 9 3 10 4 24 5 25 6 23 7 22 8 21 9 11 10 5 11 4 12
REMARK SMILES IDX 6 13 3 15 2 16 1 17 26 18 12 21 18 22 13 23 17 24 15 25
REMARK SMILES IDX 16 26 14 27 19 28 20 29
REMARK H PARENT 4 14 26 19 26 20
ROOT
ATOM      1  C   UNL     1     143.591  98.151 132.697  1.00  0.00     0.174 A 
ATOM      2  N   UNL     1     144.505  98.391 133.663  1.00  0.00    -0.142 NA
ATOM      3  N   UNL     1     145.695  97.720 133.640  1.00  0.00    -0.149 NA
ATOM      4  C   UNL     1     145.973  96.799 132.694  1.00  0.00     0.103 A 
ATOM      5  C   UNL     1     145.031  96.517 131.676  1.00  0.00     0.028 A 
ATOM      6  C   UNL     1     143.813  97.249 131.650  1.00  0.00     0.075 A 
ATOM      7  C   UNL     1     145.338  95.510 130.729  1.00  0.00     0.013 A 
ATOM      8  C   UNL     1     146.545  94.820 130.763  1.00  0.00     0.002 A 
ATOM      9  C   UNL     1     147.473  95.118 131.748  1.00  0.00     0.011 A 
ATOM     10  C   UNL     1     147.196  96.101 132.716  1.00  0.00     0.017 A 
ENDROOT
BRANCH   1  11
ATOM     11  C   UNL     1     142.340  98.972 132.803  1.00  0.00     0.273 C 
ATOM     12  N   UNL     1     141.745  98.975 134.050  1.00  0.00    -0.351 N 
ATOM     13  O   UNL     1     141.900  99.600 131.843  1.00  0.00    -0.267 OA
ATOM     14  H   UNL     1     142.190  98.424 134.779  1.00  0.00     0.163 HD
BRANCH  12  15
ATOM     15  C   UNL     1     140.519  99.685 134.344  1.00  0.00     0.116 C 
BRANCH  15  16
ATOM     16  C   UNL     1     139.576  98.871 135.228  1.00  0.00     0.018 C 
ATOM     17  C   UNL     1     140.237  98.368 136.503  1.00  0.00     0.006 C 
ENDBRANCH  15  16
ENDBRANCH  12  15
ENDBRANCH   1  11
BRANCH   6  18
ATOM     18  N   UNL     1     142.804  96.934 130.701  1.00  0.00    -0.396 N 
ATOM     19  H   UNL     1     143.204  96.720 129.776  1.00  0.00     0.156 HD
ATOM     20  H   UNL     1     142.168  96.203 131.001  1.00  0.00     0.156 HD
ENDBRANCH   6  18
BRANCH  10  21
ATOM     21  C   UNL     1     148.207  96.380 133.753  1.00  0.00     0.062 A 
ATOM     22  C   UNL     1     148.237  95.672 134.974  1.00  0.00     0.129 A 
ATOM     23  C   UNL     1     149.163  97.384 133.542  1.00  0.00     0.134 A 
ATOM     24  C   UNL     1     149.215  95.977 135.933  1.00  0.00     0.047 A 
ATOM     25  C   UNL     1     150.129  97.688 134.497  1.00  0.00     0.040 A 
ATOM     26  C   UNL     1     150.155  96.984 135.694  1.00  0.00     0.007 A 
ATOM     27  F   UNL     1     149.171  98.074 132.390  1.00  0.00    -0.206 F 
BRANCH  22  28
ATOM     28  O   UNL     1     147.286  94.693 135.128  1.00  0.00    -0.496 OA
ATOM     29  C   UNL     1     146.383  94.827 136.217  1.00  0.00     0.278 C 
ENDBRANCH  22  28
ENDBRANCH  10  21
TORSDOF 6
ENDMDL
MODEL 18
REMARK VINA RESULT:    -5.848      3.133      4.713
REMARK INTER + INTRA:          -8.857
REMARK INTER:                  -7.856
REMARK INTRA:                  -1.001
REMARK UNBOUND:                -1.129
REMARK SMILES CCCNC(=O)c1nnc2c(-c3c(F)cccc3OC)cccc2c1N
REMARK SMILES IDX 7 1 8 2 9 3 10 4 24 5 25 6 23 7 22 8 21 9 11 10 5 11 4 12
REMARK SMILES IDX 6 13 3 15 2 16 1 17 26 18 12 21 18 22 13 23 17 24 15 25
REMARK SMILES IDX 16 26 14 27 19 28 20 29
REMARK H PARENT 4 14 26 19 26 20
ROOT
ATOM      1  C   UNL     1     144.520  95.580 135.641  1.00  0.00     0.174 A 
ATOM      2  N   UNL     1     144.142  96.877 135.588  1.00  0.00    -0.142 NA
ATOM      3  N   UNL     1     142.971  97.208 134.967  1.00  0.00    -0.149 NA
ATOM      4  C   UNL     1     142.192  96.277 134.376  1.00  0.00     0.103 A 
ATOM      5  C   UNL     1     142.568  94.913 134.405  1.00  0.00     0.028 A 
ATOM      6  C   UNL     1     143.751  94.544 135.098  1.00  0.00     0.075 A 
ATOM      7  C   UNL     1     141.750  93.971 133.732  1.00  0.00     0.013 A 
ATOM      8  C   UNL     1     140.585  94.354 133.076  1.00  0.00     0.002 A 
ATOM      9  C   UNL     1     140.212  95.689 133.073  1.00  0.00     0.011 A 
ATOM     10  C   UNL     1     141.007  96.654 133.716  1.00  0.00     0.017 A 
ENDROOT
BRANCH   1  11
ATOM     11  C   UNL     1     145.801  95.333 136.380  1.00  0.00     0.273 C 
ATOM     12  N   UNL     1     146.953  95.585 135.658  1.00  0.00    -0.351 N 
ATOM     13  O   UNL     1     145.808  94.946 137.546  1.00  0.00    -0.267 OA
ATOM     14  H   UNL     1     146.839  95.904 134.699  1.00  0.00     0.163 HD
BRANCH  12  15
ATOM     15  C   UNL     1     148.283  95.381 136.187  1.00  0.00     0.116 C 
BRANCH  15  16
ATOM     16  C   UNL     1     149.351  96.098 135.363  1.00  0.00     0.018 C 
ATOM     17  C   UNL     1     150.126  97.135 136.162  1.00  0.00     0.006 C 
ENDBRANCH  15  16
ENDBRANCH  12  15
ENDBRANCH   1  11
BRANCH   6  18
ATOM     18  N   UNL     1     144.210  93.199 135.074  1.00  0.00    -0.396 N 
ATOM     19  H   UNL     1     145.074  93.101 134.522  1.00  0.00     0.156 HD
ATOM     20  H   UNL     1     144.316  92.782 135.993  1.00  0.00     0.156 HD
ENDBRANCH   6  18
BRANCH  10  21
ATOM     21  C   UNL     1     140.579  98.065 133.680  1.00  0.00     0.062 A 
ATOM     22  C   UNL     1     139.782  98.628 134.700  1.00  0.00     0.129 A 
ATOM     23  C   UNL     1     140.954  98.881 132.602  1.00  0.00     0.134 A 
ATOM     24  C   UNL     1     139.395  99.974 134.620  1.00  0.00     0.047 A 
ATOM     25  C   UNL     1     140.563 100.214 132.522  1.00  0.00     0.040 A 
ATOM     26  C   UNL     1     139.784 100.762 133.533  1.00  0.00     0.007 A 
ATOM     27  F   UNL     1     141.717  98.383 131.616  1.00  0.00    -0.206 F 
BRANCH  22  28
ATOM     28  O   UNL     1     139.451  97.792 135.738  1.00  0.00    -0.496 OA
ATOM     29  C   UNL     1     139.998  98.089 137.016  1.00  0.00     0.278 C 
ENDBRANCH  22  28
ENDBRANCH  10  21
TORSDOF 6
ENDMDL
MODEL 19
REMARK VINA RESULT:    -5.781      4.349      7.269
REMARK INTER + INTRA:          -8.768
REMARK INTER:                  -7.762
REMARK INTRA:                  -1.006
REMARK UNBOUND:                -1.129
REMARK SMILES CCCNC(=O)c1nnc2c(-c3c(F)cccc3OC)cccc2c1N
REMARK SMILES IDX 7 1 8 2 9 3 10 4 24 5 25 6 23 7 22 8 21 9 11 10 5 11 4 12
REMARK SMILES IDX 6 13 3 15 2 16 1 17 26 18 12 21 18 22 13 23 17 24 15 25
REMARK SMILES IDX 16 26 14 27 19 28 20 29
REMARK H PARENT 4 14 26 19 26 20
ROOT
ATOM      1  C   UNL     1     143.983  96.374 137.091  1.00  0.00     0.174 A 
ATOM      2  N   UNL     1     145.186  96.219 137.689  1.00  0.00    -0.142 NA
ATOM      3  N   UNL     1     146.232  95.719 136.967  1.00  0.00    -0.149 NA
ATOM      4  C   UNL     1     146.092  95.345 135.678  1.00  0.00     0.103 A 
ATOM      5  C   UNL     1     144.843  95.483 135.029  1.00  0.00     0.028 A 
ATOM      6  C   UNL     1     143.759  96.058 135.746  1.00  0.00     0.075 A 
ATOM      7  C   UNL     1     144.722  95.035 133.690  1.00  0.00     0.013 A 
ATOM      8  C   UNL     1     145.802  94.493 133.002  1.00  0.00     0.002 A 
ATOM      9  C   UNL     1     147.029  94.383 133.637  1.00  0.00     0.011 A 
ATOM     10  C   UNL     1     147.182  94.802 134.971  1.00  0.00     0.017 A 
ENDROOT
BRANCH   1  11
ATOM     11  C   UNL     1     142.921  96.967 137.968  1.00  0.00     0.273 C 
ATOM     12  N   UNL     1     142.800  96.386 139.217  1.00  0.00    -0.351 N 
ATOM     13  O   UNL     1     142.228  97.909 137.593  1.00  0.00    -0.267 OA
ATOM     14  H   UNL     1     143.424  95.612 139.432  1.00  0.00     0.163 HD
BRANCH  12  15
ATOM     15  C   UNL     1     141.817  96.799 140.194  1.00  0.00     0.116 C 
BRANCH  15  16
ATOM     16  C   UNL     1     142.257  96.493 141.624  1.00  0.00     0.018 C 
ATOM     17  C   UNL     1     141.395  97.178 142.674  1.00  0.00     0.006 C 
ENDBRANCH  15  16
ENDBRANCH  12  15
ENDBRANCH   1  11
BRANCH   6  18
ATOM     18  N   UNL     1     142.467  96.132 135.160  1.00  0.00    -0.396 N 
ATOM     19  H   UNL     1     142.277  97.066 134.772  1.00  0.00     0.156 HD
ATOM     20  H   UNL     1     142.282  95.407 134.474  1.00  0.00     0.156 HD
ENDBRANCH   6  18
BRANCH  10  21
ATOM     21  C   UNL     1     148.503  94.658 135.613  1.00  0.00     0.062 A 
ATOM     22  C   UNL     1     149.417  95.730 135.687  1.00  0.00     0.129 A 
ATOM     23  C   UNL     1     148.881  93.422 136.159  1.00  0.00     0.134 A 
ATOM     24  C   UNL     1     150.663  95.544 136.303  1.00  0.00     0.047 A 
ATOM     25  C   UNL     1     150.121  93.238 136.765  1.00  0.00     0.040 A 
ATOM     26  C   UNL     1     151.013  94.300 136.837  1.00  0.00     0.007 A 
ATOM     27  F   UNL     1     148.036  92.380 136.115  1.00  0.00    -0.206 F 
BRANCH  22  28
ATOM     28  O   UNL     1     148.995  96.921 135.147  1.00  0.00    -0.496 OA
ATOM     29  C   UNL     1     149.996  97.822 134.693  1.00  0.00     0.278 C 
ENDBRANCH  22  28
ENDBRANCH  10  21
TORSDOF 6
ENDMDL
MODEL 20
REMARK VINA RESULT:    -5.706      2.452      4.559
REMARK INTER + INTRA:          -8.670
REMARK INTER:                  -7.678
REMARK INTRA:                  -0.992
REMARK UNBOUND:                -1.129
REMARK SMILES CCCNC(=O)c1nnc2c(-c3c(F)cccc3OC)cccc2c1N
REMARK SMILES IDX 7 1 8 2 9 3 10 4 24 5 25 6 23 7 22 8 21 9 11 10 5 11 4 12
REMARK SMILES IDX 6 13 3 15 2 16 1 17 26 18 12 21 18 22 13 23 17 24 15 25
REMARK SMILES IDX 16 26 14 27 19 28 20 29
REMARK H PARENT 4 14 26 19 26 20
ROOT
ATOM      1  C   UNL     1     141.061  97.552 136.205  1.00  0.00     0.174 A 
ATOM      2  N   UNL     1     142.278  96.991 136.026  1.00  0.00    -0.142 NA
ATOM      3  N   UNL     1     142.713  96.725 134.758  1.00  0.00    -0.149 NA
ATOM      4  C   UNL     1     141.947  96.980 133.676  1.00  0.00     0.103 A 
ATOM      5  C   UNL     1     140.664  97.556 133.832  1.00  0.00     0.028 A 
ATOM      6  C   UNL     1     140.221  97.894 135.139  1.00  0.00     0.075 A 
ATOM      7  C   UNL     1     139.871  97.764 132.677  1.00  0.00     0.013 A 
ATOM      8  C   UNL     1     140.334  97.443 131.406  1.00  0.00     0.002 A 
ATOM      9  C   UNL     1     141.601  96.901 131.259  1.00  0.00     0.011 A 
ATOM     10  C   UNL     1     142.411  96.665 132.385  1.00  0.00     0.017 A 
ENDROOT
BRANCH   1  11
ATOM     11  C   UNL     1     140.707  97.832 137.635  1.00  0.00     0.273 C 
ATOM     12  N   UNL     1     141.348  97.036 138.565  1.00  0.00    -0.351 N 
ATOM     13  O   UNL     1     139.912  98.718 137.939  1.00  0.00    -0.267 OA
ATOM     14  H   UNL     1     141.990  96.332 138.210  1.00  0.00     0.163 HD
BRANCH  12  15
ATOM     15  C   UNL     1     141.118  97.135 139.989  1.00  0.00     0.116 C 
BRANCH  15  16
ATOM     16  C   UNL     1     142.158  96.363 140.799  1.00  0.00     0.018 C 
ATOM     17  C   UNL     1     142.555  97.068 142.088  1.00  0.00     0.006 C 
ENDBRANCH  15  16
ENDBRANCH  12  15
ENDBRANCH   1  11
BRANCH   6  18
ATOM     18  N   UNL     1     138.905  98.389 135.347  1.00  0.00    -0.396 N 
ATOM     19  H   UNL     1     138.683  98.473 136.349  1.00  0.00     0.156 HD
ATOM     20  H   UNL     1     138.708  99.255 134.856  1.00  0.00     0.156 HD
ENDBRANCH   6  18
BRANCH  10  21
ATOM     21  C   UNL     1     143.750  96.078 132.185  1.00  0.00     0.062 A 
ATOM     22  C   UNL     1     143.968  94.684 132.237  1.00  0.00     0.129 A 
ATOM     23  C   UNL     1     144.850  96.916 131.949  1.00  0.00     0.134 A 
ATOM     24  C   UNL     1     145.260  94.173 132.046  1.00  0.00     0.047 A 
ATOM     25  C   UNL     1     146.132  96.406 131.766  1.00  0.00     0.040 A 
ATOM     26  C   UNL     1     146.338  95.033 131.814  1.00  0.00     0.007 A 
ATOM     27  F   UNL     1     144.681  98.246 131.885  1.00  0.00    -0.206 F 
BRANCH  22  28
ATOM     28  O   UNL     1     142.858  93.908 132.460  1.00  0.00    -0.496 OA
ATOM     29  C   UNL     1     143.073  92.554 132.835  1.00  0.00     0.278 C 
ENDBRANCH  22  28
ENDBRANCH  10  21
TORSDOF 6
ENDMDL
