MODEL 1
REMARK VINA RESULT:     0.382      0.000      0.000
REMARK INTER + INTRA:           0.849
REMARK INTER:                   0.539
REMARK INTRA:                   0.310
REMARK UNBOUND:                 0.310
REMARK SMILES Cc1ccc(NC(=O)c2ccc(CN3CCN(C)CC3)cc2)cc1Nc1nc(-c2cccnc2)cs1
REMARK SMILES IDX 6 1 7 2 8 3 5 5 2 6 3 7 24 8 4 9 23 10 1 11 25 12 26 14
REMARK SMILES IDX 27 15 36 16 28 17 35 18 29 19 30 20 34 21 31 22 33 23 32 24
REMARK SMILES IDX 9 25 10 26 22 27 11 28 21 29 12 30 13 31 14 32 15 33 20 34
REMARK SMILES IDX 16 35 19 36 17 37 18 38
REMARK H PARENT 6 4 25 13
ROOT
ATOM      1  N   UNL     1      31.143  27.601  45.857  1.00  0.00    -0.322 N 
ATOM      2  C   UNL     1      30.988  28.895  46.322  1.00  0.00     0.255 C 
ATOM      3  O   UNL     1      30.334  29.256  47.292  1.00  0.00    -0.269 OA
ATOM      4  H   UNL     1      31.835  27.459  45.134  1.00  0.00     0.170 HD
ENDROOT
BRANCH   1   5
ATOM      5  C   UNL     1      30.536  26.433  46.363  1.00  0.00     0.043 A 
ATOM      6  C   UNL     1      29.432  24.104  47.520  1.00  0.00    -0.027 A 
ATOM      7  C   UNL     1      30.604  24.672  48.037  1.00  0.00     0.008 A 
ATOM      8  C   UNL     1      28.827  24.691  46.394  1.00  0.00     0.045 A 
ATOM      9  C   UNL     1      31.147  25.825  47.465  1.00  0.00     0.026 A 
ATOM     10  C   UNL     1      29.384  25.853  45.829  1.00  0.00     0.052 A 
ATOM     11  C   UNL     1      28.873  22.864  48.162  1.00  0.00     0.046 C 
BRANCH   8  12
ATOM     12  N   UNL     1      27.667  24.121  45.815  1.00  0.00    -0.331 N 
ATOM     13  H   UNL     1      27.174  23.543  46.491  1.00  0.00     0.169 HD
BRANCH  12  14
ATOM     14  C   UNL     1      26.784  24.829  45.059  1.00  0.00     0.187 A 
ATOM     15  N   UNL     1      26.673  24.617  43.764  1.00  0.00    -0.220 NA
ATOM     16  S   UNL     1      25.744  26.072  45.657  1.00  0.00    -0.105 S 
ATOM     17  C   UNL     1      25.735  25.462  43.188  1.00  0.00     0.085 A 
ATOM     18  C   UNL     1      25.122  26.318  44.081  1.00  0.00     0.097 A 
BRANCH  17  19
ATOM     19  C   UNL     1      25.464  25.406  41.755  1.00  0.00     0.019 A 
ATOM     20  C   UNL     1      24.848  24.318  41.128  1.00  0.00     0.013 A 
ATOM     21  C   UNL     1      25.814  26.481  40.939  1.00  0.00     0.121 A 
ATOM     22  C   UNL     1      24.613  24.346  39.751  1.00  0.00     0.021 A 
ATOM     23  N   UNL     1      25.599  26.537  39.598  1.00  0.00    -0.264 NA
ATOM     24  C   UNL     1      25.003  25.466  39.037  1.00  0.00     0.111 A 
ENDBRANCH  17  19
ENDBRANCH  12  14
ENDBRANCH   8  12
ENDBRANCH   1   5
BRANCH   2  25
ATOM     25  C   UNL     1      31.758  29.921  45.563  1.00  0.00     0.040 A 
ATOM     26  C   UNL     1      33.141  29.995  45.754  1.00  0.00     0.014 A 
ATOM     27  C   UNL     1      31.127  30.810  44.684  1.00  0.00     0.014 A 
ATOM     28  C   UNL     1      33.894  30.931  45.045  1.00  0.00     0.006 A 
ATOM     29  C   UNL     1      31.885  31.749  43.978  1.00  0.00     0.006 A 
ATOM     30  C   UNL     1      33.277  31.811  44.141  1.00  0.00    -0.034 A 
BRANCH  30  31
ATOM     31  C   UNL     1      34.097  32.839  43.385  1.00  0.00     0.120 C 
BRANCH  31  32
ATOM     32  N   UNL     1      33.780  34.224  43.782  1.00  0.00    -0.297 NA
ATOM     33  C   UNL     1      34.961  34.873  44.378  1.00  0.00     0.100 C 
ATOM     34  C   UNL     1      32.655  34.270  44.748  1.00  0.00     0.100 C 
ATOM     35  C   UNL     1      35.402  34.325  45.763  1.00  0.00     0.099 C 
ATOM     36  C   UNL     1      33.038  34.360  46.251  1.00  0.00     0.099 C 
ATOM     37  N   UNL     1      34.316  33.697  46.541  1.00  0.00    -0.304 NA
ATOM     38  C   UNL     1      34.617  33.697  47.968  1.00  0.00     0.105 C 
ENDBRANCH  31  32
ENDBRANCH  30  31
ENDBRANCH   2  25
TORSDOF 7
ENDMDL
MODEL 2
REMARK VINA RESULT:     1.115      2.786     10.093
REMARK INTER + INTRA:           1.882
REMARK INTER:                   2.688
REMARK INTRA:                  -0.806
REMARK UNBOUND:                 0.310
REMARK SMILES Cc1ccc(NC(=O)c2ccc(CN3CCN(C)CC3)cc2)cc1Nc1nc(-c2cccnc2)cs1
REMARK SMILES IDX 6 1 7 2 8 3 5 5 2 6 3 7 24 8 4 9 23 10 1 11 25 12 26 14
REMARK SMILES IDX 27 15 36 16 28 17 35 18 29 19 30 20 34 21 31 22 33 23 32 24
REMARK SMILES IDX 9 25 10 26 22 27 11 28 21 29 12 30 13 31 14 32 15 33 20 34
REMARK SMILES IDX 16 35 19 36 17 37 18 38
REMARK H PARENT 6 4 25 13
ROOT
ATOM      1  N   UNL     1      27.524  24.786  44.394  1.00  0.00    -0.322 N 
ATOM      2  C   UNL     1      26.303  25.435  44.411  1.00  0.00     0.255 C 
ATOM      3  O   UNL     1      25.792  26.017  45.360  1.00  0.00    -0.269 OA
ATOM      4  H   UNL     1      27.865  24.485  43.491  1.00  0.00     0.170 HD
ENDROOT
BRANCH   1   5
ATOM      5  C   UNL     1      28.411  24.604  45.476  1.00  0.00     0.043 A 
ATOM      6  C   UNL     1      30.165  24.061  47.622  1.00  0.00    -0.027 A 
ATOM      7  C   UNL     1      29.381  23.043  47.066  1.00  0.00     0.008 A 
ATOM      8  C   UNL     1      30.045  25.370  47.119  1.00  0.00     0.045 A 
ATOM      9  C   UNL     1      28.515  23.313  46.003  1.00  0.00     0.026 A 
ATOM     10  C   UNL     1      29.171  25.626  46.047  1.00  0.00     0.052 A 
ATOM     11  C   UNL     1      31.088  23.736  48.764  1.00  0.00     0.046 C 
BRANCH   8  12
ATOM     12  N   UNL     1      30.787  26.435  47.684  1.00  0.00    -0.331 N 
ATOM     13  H   UNL     1      31.712  26.119  47.967  1.00  0.00     0.169 HD
BRANCH  12  14
ATOM     14  C   UNL     1      30.856  27.675  47.128  1.00  0.00     0.187 A 
ATOM     15  N   UNL     1      31.546  27.891  46.027  1.00  0.00    -0.220 NA
ATOM     16  S   UNL     1      30.103  29.091  47.771  1.00  0.00    -0.105 S 
ATOM     17  C   UNL     1      31.501  29.225  45.651  1.00  0.00     0.085 A 
ATOM     18  C   UNL     1      30.747  30.023  46.488  1.00  0.00     0.097 A 
BRANCH  17  19
ATOM     19  C   UNL     1      32.212  29.688  44.463  1.00  0.00     0.019 A 
ATOM     20  C   UNL     1      32.006  30.943  43.880  1.00  0.00     0.013 A 
ATOM     21  C   UNL     1      33.162  28.866  43.857  1.00  0.00     0.121 A 
ATOM     22  C   UNL     1      32.736  31.316  42.749  1.00  0.00     0.021 A 
ATOM     23  N   UNL     1      33.885  29.201  42.756  1.00  0.00    -0.264 NA
ATOM     24  C   UNL     1      33.654  30.420  42.229  1.00  0.00     0.111 A 
ENDBRANCH  17  19
ENDBRANCH  12  14
ENDBRANCH   8  12
ENDBRANCH   1   5
BRANCH   2  25
ATOM     25  C   UNL     1      25.592  25.449  43.102  1.00  0.00     0.040 A 
ATOM     26  C   UNL     1      26.307  25.111  41.949  1.00  0.00     0.014 A 
ATOM     27  C   UNL     1      24.241  25.805  43.005  1.00  0.00     0.014 A 
ATOM     28  C   UNL     1      25.666  25.095  40.709  1.00  0.00     0.006 A 
ATOM     29  C   UNL     1      23.603  25.792  41.761  1.00  0.00     0.006 A 
ATOM     30  C   UNL     1      24.305  25.425  40.603  1.00  0.00    -0.034 A 
BRANCH  30  31
ATOM     31  C   UNL     1      23.616  25.424  39.250  1.00  0.00     0.120 C 
BRANCH  31  32
ATOM     32  N   UNL     1      24.529  25.777  38.147  1.00  0.00    -0.297 NA
ATOM     33  C   UNL     1      23.847  26.649  37.173  1.00  0.00     0.100 C 
ATOM     34  C   UNL     1      25.038  24.570  37.453  1.00  0.00     0.100 C 
ATOM     35  C   UNL     1      22.721  25.974  36.342  1.00  0.00     0.099 C 
ATOM     36  C   UNL     1      24.291  24.151  36.157  1.00  0.00     0.099 C 
ATOM     37  N   UNL     1      22.869  24.514  36.192  1.00  0.00    -0.304 NA
ATOM     38  C   UNL     1      22.154  24.026  35.017  1.00  0.00     0.105 C 
ENDBRANCH  31  32
ENDBRANCH  30  31
ENDBRANCH   2  25
TORSDOF 7
ENDMDL
MODEL 3
REMARK VINA RESULT:     2.352      1.256      2.061
REMARK INTER + INTRA:           3.625
REMARK INTER:                   0.694
REMARK INTRA:                   2.931
REMARK UNBOUND:                 0.310
REMARK SMILES Cc1ccc(NC(=O)c2ccc(CN3CCN(C)CC3)cc2)cc1Nc1nc(-c2cccnc2)cs1
REMARK SMILES IDX 6 1 7 2 8 3 5 5 2 6 3 7 24 8 4 9 23 10 1 11 25 12 26 14
REMARK SMILES IDX 27 15 36 16 28 17 35 18 29 19 30 20 34 21 31 22 33 23 32 24
REMARK SMILES IDX 9 25 10 26 22 27 11 28 21 29 12 30 13 31 14 32 15 33 20 34
REMARK SMILES IDX 16 35 19 36 17 37 18 38
REMARK H PARENT 6 4 25 13
ROOT
ATOM      1  N   UNL     1      31.141  27.639  46.323  1.00  0.00    -0.322 N 
ATOM      2  C   UNL     1      32.180  28.045  45.505  1.00  0.00     0.255 C 
ATOM      3  O   UNL     1      32.649  27.436  44.551  1.00  0.00    -0.269 OA
ATOM      4  H   UNL     1      30.780  28.325  46.971  1.00  0.00     0.170 HD
ENDROOT
BRANCH   1   5
ATOM      5  C   UNL     1      30.441  26.415  46.271  1.00  0.00     0.043 A 
ATOM      6  C   UNL     1      29.196  23.881  46.198  1.00  0.00    -0.027 A 
ATOM      7  C   UNL     1      30.592  23.991  46.202  1.00  0.00     0.008 A 
ATOM      8  C   UNL     1      28.418  25.053  46.198  1.00  0.00     0.045 A 
ATOM      9  C   UNL     1      31.207  25.245  46.240  1.00  0.00     0.026 A 
ATOM     10  C   UNL     1      29.050  26.309  46.238  1.00  0.00     0.052 A 
ATOM     11  C   UNL     1      28.568  22.515  46.159  1.00  0.00     0.046 C 
BRANCH   8  12
ATOM     12  N   UNL     1      27.005  24.984  46.148  1.00  0.00    -0.331 N 
ATOM     13  H   UNL     1      26.602  25.173  47.063  1.00  0.00     0.169 HD
BRANCH  12  14
ATOM     14  C   UNL     1      26.262  25.572  45.170  1.00  0.00     0.187 A 
ATOM     15  N   UNL     1      26.266  25.107  43.939  1.00  0.00    -0.220 NA
ATOM     16  S   UNL     1      25.269  26.969  45.388  1.00  0.00    -0.105 S 
ATOM     17  C   UNL     1      25.462  25.868  43.103  1.00  0.00     0.085 A 
ATOM     18  C   UNL     1      24.832  26.922  43.733  1.00  0.00     0.097 A 
BRANCH  17  19
ATOM     19  C   UNL     1      25.334  25.536  41.688  1.00  0.00     0.019 A 
ATOM     20  C   UNL     1      24.956  24.272  41.223  1.00  0.00     0.013 A 
ATOM     21  C   UNL     1      25.584  26.508  40.720  1.00  0.00     0.121 A 
ATOM     22  C   UNL     1      24.846  24.037  39.850  1.00  0.00     0.021 A 
ATOM     23  N   UNL     1      25.486  26.309  39.379  1.00  0.00    -0.264 NA
ATOM     24  C   UNL     1      25.118  25.076  38.977  1.00  0.00     0.111 A 
ENDBRANCH  17  19
ENDBRANCH  12  14
ENDBRANCH   8  12
ENDBRANCH   1   5
BRANCH   2  25
ATOM     25  C   UNL     1      32.723  29.396  45.820  1.00  0.00     0.040 A 
ATOM     26  C   UNL     1      34.098  29.613  45.686  1.00  0.00     0.014 A 
ATOM     27  C   UNL     1      31.894  30.437  46.258  1.00  0.00     0.014 A 
ATOM     28  C   UNL     1      34.636  30.873  45.955  1.00  0.00     0.006 A 
ATOM     29  C   UNL     1      32.437  31.696  46.531  1.00  0.00     0.006 A 
ATOM     30  C   UNL     1      33.811  31.929  46.370  1.00  0.00    -0.034 A 
BRANCH  30  31
ATOM     31  C   UNL     1      34.402  33.293  46.679  1.00  0.00     0.120 C 
BRANCH  31  32
ATOM     32  N   UNL     1      33.800  34.370  45.871  1.00  0.00    -0.297 NA
ATOM     33  C   UNL     1      32.569  33.895  45.214  1.00  0.00     0.100 C 
ATOM     34  C   UNL     1      34.742  34.873  44.842  1.00  0.00     0.100 C 
ATOM     35  C   UNL     1      32.772  32.842  44.090  1.00  0.00     0.099 C 
ATOM     36  C   UNL     1      34.592  34.277  43.416  1.00  0.00     0.099 C 
ATOM     37  N   UNL     1      34.095  32.895  43.440  1.00  0.00    -0.304 NA
ATOM     38  C   UNL     1      34.055  32.309  42.104  1.00  0.00     0.105 C 
ENDBRANCH  31  32
ENDBRANCH  30  31
ENDBRANCH   2  25
TORSDOF 7
ENDMDL
MODEL 4
REMARK VINA RESULT:     2.981      2.484     10.632
REMARK INTER + INTRA:           4.511
REMARK INTER:                   5.272
REMARK INTRA:                  -0.761
REMARK UNBOUND:                 0.310
REMARK SMILES Cc1ccc(NC(=O)c2ccc(CN3CCN(C)CC3)cc2)cc1Nc1nc(-c2cccnc2)cs1
REMARK SMILES IDX 6 1 7 2 8 3 5 5 2 6 3 7 24 8 4 9 23 10 1 11 25 12 26 14
REMARK SMILES IDX 27 15 36 16 28 17 35 18 29 19 30 20 34 21 31 22 33 23 32 24
REMARK SMILES IDX 9 25 10 26 22 27 11 28 21 29 12 30 13 31 14 32 15 33 20 34
REMARK SMILES IDX 16 35 19 36 17 37 18 38
REMARK H PARENT 6 4 25 13
ROOT
ATOM      1  N   UNL     1      27.351  24.926  44.250  1.00  0.00    -0.322 N 
ATOM      2  C   UNL     1      26.087  25.487  44.267  1.00  0.00     0.255 C 
ATOM      3  O   UNL     1      25.526  26.010  45.221  1.00  0.00    -0.269 OA
ATOM      4  H   UNL     1      27.721  24.670  43.345  1.00  0.00     0.170 HD
ENDROOT
BRANCH   1   5
ATOM      5  C   UNL     1      28.239  24.786  45.338  1.00  0.00     0.043 A 
ATOM      6  C   UNL     1      29.987  24.326  47.508  1.00  0.00    -0.027 A 
ATOM      7  C   UNL     1      29.163  23.301  47.025  1.00  0.00     0.008 A 
ATOM      8  C   UNL     1      29.910  25.601  46.918  1.00  0.00     0.045 A 
ATOM      9  C   UNL     1      28.300  23.530  45.950  1.00  0.00     0.026 A 
ATOM     10  C   UNL     1      29.038  25.816  45.835  1.00  0.00     0.052 A 
ATOM     11  C   UNL     1      30.905  24.045  48.665  1.00  0.00     0.046 C 
BRANCH   8  12
ATOM     12  N   UNL     1      30.693  26.674  47.407  1.00  0.00    -0.331 N 
ATOM     13  H   UNL     1      31.178  26.406  48.260  1.00  0.00     0.169 HD
BRANCH  12  14
ATOM     14  C   UNL     1      31.503  27.430  46.616  1.00  0.00     0.187 A 
ATOM     15  N   UNL     1      31.580  28.735  46.769  1.00  0.00    -0.220 NA
ATOM     16  S   UNL     1      32.486  26.816  45.334  1.00  0.00    -0.105 S 
ATOM     17  C   UNL     1      32.442  29.307  45.845  1.00  0.00     0.085 A 
ATOM     18  C   UNL     1      33.034  28.401  44.988  1.00  0.00     0.097 A 
BRANCH  17  19
ATOM     19  C   UNL     1      32.664  30.749  45.827  1.00  0.00     0.019 A 
ATOM     20  C   UNL     1      31.680  31.677  45.468  1.00  0.00     0.013 A 
ATOM     21  C   UNL     1      33.907  31.267  46.191  1.00  0.00     0.121 A 
ATOM     22  C   UNL     1      31.968  33.044  45.487  1.00  0.00     0.021 A 
ATOM     23  N   UNL     1      34.216  32.590  46.218  1.00  0.00    -0.264 NA
ATOM     24  C   UNL     1      33.237  33.446  45.865  1.00  0.00     0.111 A 
ENDBRANCH  17  19
ENDBRANCH  12  14
ENDBRANCH   8  12
ENDBRANCH   1   5
BRANCH   2  25
ATOM     25  C   UNL     1      25.389  25.477  42.951  1.00  0.00     0.040 A 
ATOM     26  C   UNL     1      26.112  25.106  41.813  1.00  0.00     0.014 A 
ATOM     27  C   UNL     1      24.042  25.843  42.831  1.00  0.00     0.014 A 
ATOM     28  C   UNL     1      25.483  25.067  40.567  1.00  0.00     0.006 A 
ATOM     29  C   UNL     1      23.417  25.807  41.581  1.00  0.00     0.006 A 
ATOM     30  C   UNL     1      24.127  25.407  40.440  1.00  0.00    -0.034 A 
BRANCH  30  31
ATOM     31  C   UNL     1      23.452  25.381  39.080  1.00  0.00     0.120 C 
BRANCH  31  32
ATOM     32  N   UNL     1      24.357  25.784  37.988  1.00  0.00    -0.297 NA
ATOM     33  C   UNL     1      23.630  26.581  36.983  1.00  0.00     0.100 C 
ATOM     34  C   UNL     1      24.974  24.607  37.328  1.00  0.00     0.100 C 
ATOM     35  C   UNL     1      22.578  25.805  36.144  1.00  0.00     0.099 C 
ATOM     36  C   UNL     1      24.288  24.106  36.027  1.00  0.00     0.099 C 
ATOM     37  N   UNL     1      22.842  24.358  36.027  1.00  0.00    -0.304 NA
ATOM     38  C   UNL     1      22.192  23.793  34.849  1.00  0.00     0.105 C 
ENDBRANCH  31  32
ENDBRANCH  30  31
ENDBRANCH   2  25
TORSDOF 7
ENDMDL
