MODEL 1
REMARK VINA RESULT:    -0.463      0.000      0.000
REMARK INTER + INTRA:          -0.351
REMARK INTER:                  -0.653
REMARK INTRA:                   0.302
REMARK UNBOUND:                 0.302
REMARK SMILES Cc1ccc(NC(=O)c2ccc(CN3CCN(C)CC3)cc2)cc1Nc1nc(-c2cccnc2)cs1
REMARK SMILES IDX 6 1 7 2 8 3 5 5 2 6 3 7 24 8 4 9 23 10 1 11 25 12 26 14
REMARK SMILES IDX 27 15 36 16 28 17 35 18 29 19 30 20 34 21 31 22 33 23 32 24
REMARK SMILES IDX 9 25 10 26 22 27 11 28 21 29 12 30 13 31 14 32 15 33 20 34
REMARK SMILES IDX 16 35 19 36 17 37 18 38
REMARK H PARENT 6 4 25 13
ROOT
ATOM      1  N   UNL     1      33.289  30.118  45.553  1.00  0.00    -0.322 N 
ATOM      2  C   UNL     1      32.068  29.859  46.150  1.00  0.00     0.255 C 
ATOM      3  O   UNL     1      31.246  30.682  46.532  1.00  0.00    -0.269 OA
ATOM      4  H   UNL     1      33.780  29.325  45.164  1.00  0.00     0.170 HD
ENDROOT
BRANCH   1   5
ATOM      5  C   UNL     1      33.871  31.380  45.310  1.00  0.00     0.043 A 
ATOM      6  C   UNL     1      34.946  33.911  44.666  1.00  0.00    -0.027 A 
ATOM      7  C   UNL     1      34.242  33.170  43.709  1.00  0.00     0.008 A 
ATOM      8  C   UNL     1      35.141  33.363  45.947  1.00  0.00     0.045 A 
ATOM      9  C   UNL     1      33.709  31.919  44.029  1.00  0.00     0.026 A 
ATOM     10  C   UNL     1      34.597  32.103  46.256  1.00  0.00     0.052 A 
ATOM     11  C   UNL     1      35.505  35.255  44.288  1.00  0.00     0.046 C 
BRANCH   8  12
ATOM     12  N   UNL     1      35.887  34.061  46.928  1.00  0.00    -0.331 N 
ATOM     13  H   UNL     1      36.526  34.721  46.491  1.00  0.00     0.169 HD
BRANCH  12  14
ATOM     14  C   UNL     1      35.329  34.604  48.044  1.00  0.00     0.187 A 
ATOM     15  N   UNL     1      35.259  33.925  49.170  1.00  0.00    -0.220 NA
ATOM     16  S   UNL     1      34.640  36.186  48.136  1.00  0.00    -0.105 S 
ATOM     17  C   UNL     1      34.633  34.657  50.169  1.00  0.00     0.085 A 
ATOM     18  C   UNL     1      34.238  35.921  49.780  1.00  0.00     0.097 A 
BRANCH  17  19
ATOM     19  C   UNL     1      34.436  34.086  51.498  1.00  0.00     0.019 A 
ATOM     20  C   UNL     1      33.736  34.735  52.520  1.00  0.00     0.013 A 
ATOM     21  C   UNL     1      34.950  32.824  51.796  1.00  0.00     0.121 A 
ATOM     22  C   UNL     1      33.581  34.116  53.763  1.00  0.00     0.021 A 
ATOM     23  N   UNL     1      34.817  32.198  52.994  1.00  0.00    -0.264 NA
ATOM     24  C   UNL     1      34.134  32.860  53.949  1.00  0.00     0.111 A 
ENDBRANCH  17  19
ENDBRANCH  12  14
ENDBRANCH   8  12
ENDBRANCH   1   5
BRANCH   2  25
ATOM     25  C   UNL     1      31.736  28.412  46.275  1.00  0.00     0.040 A 
ATOM     26  C   UNL     1      32.368  27.504  45.421  1.00  0.00     0.014 A 
ATOM     27  C   UNL     1      30.802  27.952  47.213  1.00  0.00     0.014 A 
ATOM     28  C   UNL     1      32.094  26.139  45.525  1.00  0.00     0.006 A 
ATOM     29  C   UNL     1      30.527  26.585  47.312  1.00  0.00     0.006 A 
ATOM     30  C   UNL     1      31.180  25.664  46.478  1.00  0.00    -0.034 A 
BRANCH  30  31
ATOM     31  C   UNL     1      30.871  24.181  46.576  1.00  0.00     0.120 C 
BRANCH  31  32
ATOM     32  N   UNL     1      29.554  23.914  47.182  1.00  0.00    -0.297 NA
ATOM     33  C   UNL     1      28.937  22.721  46.572  1.00  0.00     0.100 C 
ATOM     34  C   UNL     1      28.638  25.071  47.031  1.00  0.00     0.100 C 
ATOM     35  C   UNL     1      28.489  22.880  45.093  1.00  0.00     0.099 C 
ATOM     36  C   UNL     1      27.645  25.015  45.837  1.00  0.00     0.099 C 
ATOM     37  N   UNL     1      28.188  24.269  44.695  1.00  0.00    -0.304 NA
ATOM     38  C   UNL     1      27.293  24.309  43.544  1.00  0.00     0.105 C 
ENDBRANCH  31  32
ENDBRANCH  30  31
ENDBRANCH   2  25
TORSDOF 7
ENDMDL
MODEL 2
REMARK VINA RESULT:     0.937      3.304     11.730
REMARK INTER + INTRA:           1.623
REMARK INTER:                   1.658
REMARK INTRA:                  -0.035
REMARK UNBOUND:                 0.302
REMARK SMILES Cc1ccc(NC(=O)c2ccc(CN3CCN(C)CC3)cc2)cc1Nc1nc(-c2cccnc2)cs1
REMARK SMILES IDX 6 1 7 2 8 3 5 5 2 6 3 7 24 8 4 9 23 10 1 11 25 12 26 14
REMARK SMILES IDX 27 15 36 16 28 17 35 18 29 19 30 20 34 21 31 22 33 23 32 24
REMARK SMILES IDX 9 25 10 26 22 27 11 28 21 29 12 30 13 31 14 32 15 33 20 34
REMARK SMILES IDX 16 35 19 36 17 37 18 38
REMARK H PARENT 6 4 25 13
ROOT
ATOM      1  N   UNL     1      31.571  27.144  46.128  1.00  0.00    -0.322 N 
ATOM      2  C   UNL     1      31.516  28.410  46.684  1.00  0.00     0.255 C 
ATOM      3  O   UNL     1      30.883  28.752  47.675  1.00  0.00    -0.269 OA
ATOM      4  H   UNL     1      32.256  26.999  45.399  1.00  0.00     0.170 HD
ENDROOT
BRANCH   1   5
ATOM      5  C   UNL     1      30.867  25.995  46.547  1.00  0.00     0.043 A 
ATOM      6  C   UNL     1      29.565  23.691  47.532  1.00  0.00    -0.027 A 
ATOM      7  C   UNL     1      30.750  24.149  48.122  1.00  0.00     0.008 A 
ATOM      8  C   UNL     1      29.046  24.376  46.418  1.00  0.00     0.045 A 
ATOM      9  C   UNL     1      31.392  25.290  47.635  1.00  0.00     0.026 A 
ATOM     10  C   UNL     1      29.702  25.525  45.939  1.00  0.00     0.052 A 
ATOM     11  C   UNL     1      28.899  22.460  48.084  1.00  0.00     0.046 C 
BRANCH   8  12
ATOM     12  N   UNL     1      27.876  23.918  45.767  1.00  0.00    -0.331 N 
ATOM     13  H   UNL     1      27.319  23.340  46.391  1.00  0.00     0.169 HD
BRANCH  12  14
ATOM     14  C   UNL     1      27.073  24.723  45.019  1.00  0.00     0.187 A 
ATOM     15  N   UNL     1      26.923  24.524  43.726  1.00  0.00    -0.220 NA
ATOM     16  S   UNL     1      26.193  26.080  45.625  1.00  0.00    -0.105 S 
ATOM     17  C   UNL     1      26.084  25.472  43.158  1.00  0.00     0.085 A 
ATOM     18  C   UNL     1      25.586  26.395  44.055  1.00  0.00     0.097 A 
BRANCH  17  19
ATOM     19  C   UNL     1      25.791  25.447  41.729  1.00  0.00     0.019 A 
ATOM     20  C   UNL     1      25.913  26.564  40.896  1.00  0.00     0.013 A 
ATOM     21  C   UNL     1      25.375  24.260  41.125  1.00  0.00     0.121 A 
ATOM     22  C   UNL     1      25.624  26.455  39.533  1.00  0.00     0.021 A 
ATOM     23  N   UNL     1      25.086  24.124  39.804  1.00  0.00    -0.264 NA
ATOM     24  C   UNL     1      25.218  25.227  39.040  1.00  0.00     0.111 A 
ENDBRANCH  17  19
ENDBRANCH  12  14
ENDBRANCH   8  12
ENDBRANCH   1   5
BRANCH   2  25
ATOM     25  C   UNL     1      32.372  29.421  46.004  1.00  0.00     0.040 A 
ATOM     26  C   UNL     1      31.794  30.242  45.031  1.00  0.00     0.014 A 
ATOM     27  C   UNL     1      33.733  29.554  46.307  1.00  0.00     0.014 A 
ATOM     28  C   UNL     1      32.564  31.213  44.388  1.00  0.00     0.006 A 
ATOM     29  C   UNL     1      34.503  30.525  45.659  1.00  0.00     0.006 A 
ATOM     30  C   UNL     1      33.923  31.372  44.703  1.00  0.00    -0.034 A 
BRANCH  30  31
ATOM     31  C   UNL     1      34.761  32.417  43.989  1.00  0.00     0.120 C 
BRANCH  31  32
ATOM     32  N   UNL     1      34.302  33.793  44.256  1.00  0.00    -0.297 NA
ATOM     33  C   UNL     1      35.412  34.616  44.771  1.00  0.00     0.100 C 
ATOM     34  C   UNL     1      33.183  33.816  45.229  1.00  0.00     0.100 C 
ATOM     35  C   UNL     1      35.912  34.253  46.196  1.00  0.00     0.099 C 
ATOM     36  C   UNL     1      33.560  34.090  46.711  1.00  0.00     0.099 C 
ATOM     37  N   UNL     1      34.901  33.595  47.045  1.00  0.00    -0.304 NA
ATOM     38  C   UNL     1      35.205  33.764  48.462  1.00  0.00     0.105 C 
ENDBRANCH  31  32
ENDBRANCH  30  31
ENDBRANCH   2  25
TORSDOF 7
ENDMDL
MODEL 3
REMARK VINA RESULT:     1.155      4.876      9.356
REMARK INTER + INTRA:           1.930
REMARK INTER:                   2.777
REMARK INTRA:                  -0.847
REMARK UNBOUND:                 0.302
REMARK SMILES Cc1ccc(NC(=O)c2ccc(CN3CCN(C)CC3)cc2)cc1Nc1nc(-c2cccnc2)cs1
REMARK SMILES IDX 6 1 7 2 8 3 5 5 2 6 3 7 24 8 4 9 23 10 1 11 25 12 26 14
REMARK SMILES IDX 27 15 36 16 28 17 35 18 29 19 30 20 34 21 31 22 33 23 32 24
REMARK SMILES IDX 9 25 10 26 22 27 11 28 21 29 12 30 13 31 14 32 15 33 20 34
REMARK SMILES IDX 16 35 19 36 17 37 18 38
REMARK H PARENT 6 4 25 13
ROOT
ATOM      1  N   UNL     1      27.910  24.665  44.528  1.00  0.00    -0.322 N 
ATOM      2  C   UNL     1      26.704  25.342  44.564  1.00  0.00     0.255 C 
ATOM      3  O   UNL     1      26.206  25.909  45.529  1.00  0.00    -0.269 OA
ATOM      4  H   UNL     1      28.244  24.382  43.617  1.00  0.00     0.170 HD
ENDROOT
BRANCH   1   5
ATOM      5  C   UNL     1      28.793  24.434  45.604  1.00  0.00     0.043 A 
ATOM      6  C   UNL     1      30.529  23.793  47.737  1.00  0.00    -0.027 A 
ATOM      7  C   UNL     1      29.690  22.819  47.182  1.00  0.00     0.008 A 
ATOM      8  C   UNL     1      30.474  25.108  47.239  1.00  0.00     0.045 A 
ATOM      9  C   UNL     1      28.833  23.137  46.126  1.00  0.00     0.026 A 
ATOM     10  C   UNL     1      29.607  25.413  46.174  1.00  0.00     0.052 A 
ATOM     11  C   UNL     1      31.441  23.416  48.873  1.00  0.00     0.046 C 
BRANCH   8  12
ATOM     12  N   UNL     1      31.273  26.131  47.804  1.00  0.00    -0.331 N 
ATOM     13  H   UNL     1      32.205  25.783  48.018  1.00  0.00     0.169 HD
BRANCH  12  14
ATOM     14  C   UNL     1      31.340  27.392  47.298  1.00  0.00     0.187 A 
ATOM     15  N   UNL     1      32.022  27.652  46.202  1.00  0.00    -0.220 NA
ATOM     16  S   UNL     1      30.592  28.781  48.003  1.00  0.00    -0.105 S 
ATOM     17  C   UNL     1      31.976  29.001  45.880  1.00  0.00     0.085 A 
ATOM     18  C   UNL     1      31.228  29.764  46.753  1.00  0.00     0.097 A 
BRANCH  17  19
ATOM     19  C   UNL     1      32.679  29.510  44.707  1.00  0.00     0.019 A 
ATOM     20  C   UNL     1      32.512  30.806  44.209  1.00  0.00     0.013 A 
ATOM     21  C   UNL     1      33.583  28.693  44.028  1.00  0.00     0.121 A 
ATOM     22  C   UNL     1      33.231  31.223  43.086  1.00  0.00     0.021 A 
ATOM     23  N   UNL     1      34.295  29.069  42.934  1.00  0.00    -0.264 NA
ATOM     24  C   UNL     1      34.101  30.327  42.490  1.00  0.00     0.111 A 
ENDBRANCH  17  19
ENDBRANCH  12  14
ENDBRANCH   8  12
ENDBRANCH   1   5
BRANCH   2  25
ATOM     25  C   UNL     1      25.993  25.408  43.257  1.00  0.00     0.040 A 
ATOM     26  C   UNL     1      26.697  25.078  42.095  1.00  0.00     0.014 A 
ATOM     27  C   UNL     1      24.652  25.805  43.169  1.00  0.00     0.014 A 
ATOM     28  C   UNL     1      26.056  25.111  40.856  1.00  0.00     0.006 A 
ATOM     29  C   UNL     1      24.014  25.840  41.926  1.00  0.00     0.006 A 
ATOM     30  C   UNL     1      24.705  25.482  40.759  1.00  0.00    -0.034 A 
BRANCH  30  31
ATOM     31  C   UNL     1      24.016  25.533  39.408  1.00  0.00     0.120 C 
BRANCH  31  32
ATOM     32  N   UNL     1      24.936  25.895  38.314  1.00  0.00    -0.297 NA
ATOM     33  C   UNL     1      24.291  26.845  37.390  1.00  0.00     0.100 C 
ATOM     34  C   UNL     1      25.380  24.699  37.556  1.00  0.00     0.100 C 
ATOM     35  C   UNL     1      23.126  26.269  36.538  1.00  0.00     0.099 C 
ATOM     36  C   UNL     1      24.602  24.382  36.249  1.00  0.00     0.099 C 
ATOM     37  N   UNL     1      23.200  24.812  36.316  1.00  0.00    -0.304 NA
ATOM     38  C   UNL     1      22.452  24.418  35.127  1.00  0.00     0.105 C 
ENDBRANCH  31  32
ENDBRANCH  30  31
ENDBRANCH   2  25
TORSDOF 7
ENDMDL
