MODEL 1
REMARK VINA RESULT:    -8.284      0.000      0.000
REMARK INTER + INTRA:          -9.899
REMARK INTER:                  -9.737
REMARK INTRA:                  -0.162
REMARK UNBOUND:                -0.162
REMARK SMILES CN1C(N)=N[C@](C)(c2cc(NC(=O)c3ccc(F)cn3)ccc2F)CS1(=O)=O
REMARK SMILES IDX 8 1 9 2 10 3 21 4 22 5 23 6 24 7 6 8 25 9 5 10 26 11 3 12
REMARK SMILES IDX 27 13 2 14 28 15 4 16 7 17 1 18 11 21 12 22 13 23 14 25
REMARK SMILES IDX 20 26 15 27 19 28 16 29 17 30 18 31
REMARK H PARENT 4 19 4 20 11 24
ROOT
ATOM      1  C   UNL     1      24.079  12.690  20.795  1.00  0.00     0.018 A 
ATOM      2  C   UNL     1      23.550  12.405  22.053  1.00  0.00     0.035 A 
ATOM      3  C   UNL     1      22.715  11.333  22.275  1.00  0.00     0.042 A 
ATOM      4  C   UNL     1      22.349  10.498  21.227  1.00  0.00     0.029 A 
ATOM      5  C   UNL     1      22.866  10.764  19.972  1.00  0.00     0.042 A 
ATOM      6  C   UNL     1      23.728  11.824  19.770  1.00  0.00     0.129 A 
ATOM      7  F   UNL     1      24.246  12.046  18.535  1.00  0.00    -0.207 F 
ENDROOT
BRANCH   1   8
ATOM      8  C   UNL     1      25.001  13.880  20.582  1.00  0.00     0.105 C 
ATOM      9  C   UNL     1      26.336  13.552  19.951  1.00  0.00     0.195 C 
ATOM     10  N   UNL     1      25.201  14.646  21.811  1.00  0.00    -0.240 NA
ATOM     11  S   UNL     1      27.287  12.494  21.012  1.00  0.00     0.239 S 
ATOM     12  C   UNL     1      26.060  14.277  22.711  1.00  0.00     0.205 C 
ATOM     13  O   UNL     1      28.684  12.757  20.714  1.00  0.00    -0.206 OA
ATOM     14  N   UNL     1      26.953  13.195  22.548  1.00  0.00    -0.243 N 
ATOM     15  O   UNL     1      26.717  11.186  21.101  1.00  0.00    -0.206 OA
ATOM     16  N   UNL     1      26.195  14.934  23.905  1.00  0.00    -0.369 N 
ATOM     17  C   UNL     1      24.305  14.887  19.661  1.00  0.00     0.044 C 
ATOM     18  C   UNL     1      27.837  12.711  23.628  1.00  0.00     0.167 C 
ATOM     19  H   UNL     1      25.617  15.704  24.111  1.00  0.00     0.159 HD
ATOM     20  H   UNL     1      26.871  14.637  24.557  1.00  0.00     0.159 HD
ENDBRANCH   1   8
BRANCH   3  21
ATOM     21  N   UNL     1      22.252  11.160  23.586  1.00  0.00    -0.321 N 
ATOM     22  C   UNL     1      22.950  11.315  24.770  1.00  0.00     0.274 C 
ATOM     23  O   UNL     1      24.156  11.511  24.856  1.00  0.00    -0.267 OA
ATOM     24  H   UNL     1      21.308  10.894  23.675  1.00  0.00     0.170 HD
BRANCH  22  25
ATOM     25  C   UNL     1      22.127  11.267  26.002  1.00  0.00     0.128 A 
ATOM     26  N   UNL     1      22.614  11.913  27.066  1.00  0.00    -0.248 NA
ATOM     27  C   UNL     1      20.921  10.587  26.001  1.00  0.00     0.037 A 
ATOM     28  C   UNL     1      21.887  11.880  28.195  1.00  0.00     0.151 A 
ATOM     29  C   UNL     1      20.192  10.576  27.177  1.00  0.00     0.043 A 
ATOM     30  C   UNL     1      20.680  11.226  28.295  1.00  0.00     0.141 A 
ATOM     31  F   UNL     1      20.004  11.250  29.456  1.00  0.00    -0.205 F 
ENDBRANCH  22  25
ENDBRANCH   3  21
TORSDOF 3
ENDMDL
MODEL 2
REMARK VINA RESULT:    -8.008      1.823      2.254
REMARK INTER + INTRA:          -9.575
REMARK INTER:                  -9.215
REMARK INTRA:                  -0.359
REMARK UNBOUND:                -0.162
REMARK SMILES CN1C(N)=N[C@](C)(c2cc(NC(=O)c3ccc(F)cn3)ccc2F)CS1(=O)=O
REMARK SMILES IDX 8 1 9 2 10 3 21 4 22 5 23 6 24 7 6 8 25 9 5 10 26 11 3 12
REMARK SMILES IDX 27 13 2 14 28 15 4 16 7 17 1 18 11 21 12 22 13 23 14 25
REMARK SMILES IDX 20 26 15 27 19 28 16 29 17 30 18 31
REMARK H PARENT 4 19 4 20 11 24
ROOT
ATOM      1  C   UNL     1      25.333  13.357  20.646  1.00  0.00     0.018 A 
ATOM      2  C   UNL     1      24.747  12.780  21.771  1.00  0.00     0.035 A 
ATOM      3  C   UNL     1      23.422  12.409  21.804  1.00  0.00     0.042 A 
ATOM      4  C   UNL     1      22.605  12.624  20.701  1.00  0.00     0.029 A 
ATOM      5  C   UNL     1      23.170  13.193  19.574  1.00  0.00     0.042 A 
ATOM      6  C   UNL     1      24.508  13.530  19.545  1.00  0.00     0.129 A 
ATOM      7  F   UNL     1      25.045  14.060  18.416  1.00  0.00    -0.207 F 
ENDROOT
BRANCH   1   8
ATOM      8  C   UNL     1      26.801  13.753  20.640  1.00  0.00     0.105 C 
ATOM      9  C   UNL     1      27.571  13.341  19.405  1.00  0.00     0.195 C 
ATOM     10  N   UNL     1      27.497  13.296  21.842  1.00  0.00    -0.240 NA
ATOM     11  S   UNL     1      27.634  11.572  19.267  1.00  0.00     0.239 S 
ATOM     12  C   UNL     1      27.936  12.081  21.955  1.00  0.00     0.205 C 
ATOM     13  O   UNL     1      28.849  11.256  18.539  1.00  0.00    -0.206 OA
ATOM     14  N   UNL     1      27.895  11.130  20.910  1.00  0.00    -0.243 N 
ATOM     15  O   UNL     1      26.350  11.021  18.965  1.00  0.00    -0.206 OA
ATOM     16  N   UNL     1      28.510  11.615  23.107  1.00  0.00    -0.369 N 
ATOM     17  C   UNL     1      26.902  15.277  20.744  1.00  0.00     0.044 C 
ATOM     18  C   UNL     1      28.283   9.717  21.092  1.00  0.00     0.167 C 
ATOM     19  H   UNL     1      28.585  12.204  23.892  1.00  0.00     0.159 HD
ATOM     20  H   UNL     1      28.849  10.691  23.150  1.00  0.00     0.159 HD
ENDBRANCH   1   8
BRANCH   3  21
ATOM     21  N   UNL     1      22.958  11.841  22.998  1.00  0.00    -0.321 N 
ATOM     22  C   UNL     1      22.441  12.485  24.108  1.00  0.00     0.274 C 
ATOM     23  O   UNL     1      22.426  13.697  24.277  1.00  0.00    -0.267 OA
ATOM     24  H   UNL     1      23.005  10.859  23.053  1.00  0.00     0.170 HD
BRANCH  22  25
ATOM     25  C   UNL     1      21.839  11.596  25.132  1.00  0.00     0.128 A 
ATOM     26  N   UNL     1      21.357  12.194  26.226  1.00  0.00    -0.248 NA
ATOM     27  C   UNL     1      21.791  10.229  24.918  1.00  0.00     0.037 A 
ATOM     28  C   UNL     1      20.810  11.409  27.169  1.00  0.00     0.151 A 
ATOM     29  C   UNL     1      21.217   9.448  25.905  1.00  0.00     0.043 A 
ATOM     30  C   UNL     1      20.722  10.040  27.051  1.00  0.00     0.141 A 
ATOM     31  F   UNL     1      20.147   9.323  28.031  1.00  0.00    -0.205 F 
ENDBRANCH  22  25
ENDBRANCH   3  21
TORSDOF 3
ENDMDL
MODEL 3
REMARK VINA RESULT:    -7.999      7.432     10.736
REMARK INTER + INTRA:          -9.564
REMARK INTER:                  -9.285
REMARK INTRA:                  -0.279
REMARK UNBOUND:                -0.162
REMARK SMILES CN1C(N)=N[C@](C)(c2cc(NC(=O)c3ccc(F)cn3)ccc2F)CS1(=O)=O
REMARK SMILES IDX 8 1 9 2 10 3 21 4 22 5 23 6 24 7 6 8 25 9 5 10 26 11 3 12
REMARK SMILES IDX 27 13 2 14 28 15 4 16 7 17 1 18 11 21 12 22 13 23 14 25
REMARK SMILES IDX 20 26 15 27 19 28 16 29 17 30 18 31
REMARK H PARENT 4 19 4 20 11 24
ROOT
ATOM      1  C   UNL     1      22.575   8.834  16.690  1.00  0.00     0.018 A 
ATOM      2  C   UNL     1      23.795   8.310  16.262  1.00  0.00     0.035 A 
ATOM      3  C   UNL     1      24.967   9.028  16.326  1.00  0.00     0.042 A 
ATOM      4  C   UNL     1      24.969  10.331  16.809  1.00  0.00     0.029 A 
ATOM      5  C   UNL     1      23.768  10.866  17.241  1.00  0.00     0.042 A 
ATOM      6  C   UNL     1      22.605  10.122  17.201  1.00  0.00     0.129 A 
ATOM      7  F   UNL     1      21.445  10.660  17.658  1.00  0.00    -0.207 F 
ENDROOT
BRANCH   1   8
ATOM      8  C   UNL     1      21.297   8.014  16.609  1.00  0.00     0.105 C 
ATOM      9  C   UNL     1      20.478   7.976  17.880  1.00  0.00     0.195 C 
ATOM     10  N   UNL     1      21.546   6.655  16.131  1.00  0.00    -0.240 NA
ATOM     11  S   UNL     1      21.382   7.180  19.184  1.00  0.00     0.239 S 
ATOM     12  C   UNL     1      21.968   5.720  16.926  1.00  0.00     0.205 C 
ATOM     13  O   UNL     1      20.395   6.600  20.077  1.00  0.00    -0.206 OA
ATOM     14  N   UNL     1      22.113   5.881  18.322  1.00  0.00    -0.243 N 
ATOM     15  O   UNL     1      22.491   7.971  19.617  1.00  0.00    -0.206 OA
ATOM     16  N   UNL     1      22.290   4.468  16.475  1.00  0.00    -0.369 N 
ATOM     17  C   UNL     1      20.401   8.603  15.515  1.00  0.00     0.044 C 
ATOM     18  C   UNL     1      22.711   4.851  19.193  1.00  0.00     0.167 C 
ATOM     19  H   UNL     1      22.220   4.257  15.516  1.00  0.00     0.159 HD
ATOM     20  H   UNL     1      22.589   3.778  17.110  1.00  0.00     0.159 HD
ENDBRANCH   1   8
BRANCH   3  21
ATOM     21  N   UNL     1      26.123   8.387  15.861  1.00  0.00    -0.321 N 
ATOM     22  C   UNL     1      27.320   8.188  16.526  1.00  0.00     0.274 C 
ATOM     23  O   UNL     1      27.609   8.670  17.614  1.00  0.00    -0.267 OA
ATOM     24  H   UNL     1      26.076   8.031  14.944  1.00  0.00     0.170 HD
BRANCH  22  25
ATOM     25  C   UNL     1      28.281   7.288  15.845  1.00  0.00     0.128 A 
ATOM     26  N   UNL     1      29.502   7.784  15.621  1.00  0.00    -0.248 NA
ATOM     27  C   UNL     1      27.894   6.008  15.487  1.00  0.00     0.037 A 
ATOM     28  C   UNL     1      30.389   6.988  15.001  1.00  0.00     0.151 A 
ATOM     29  C   UNL     1      28.832   5.210  14.856  1.00  0.00     0.043 A 
ATOM     30  C   UNL     1      30.097   5.704  14.602  1.00  0.00     0.141 A 
ATOM     31  F   UNL     1      31.043   4.963  14.000  1.00  0.00    -0.205 F 
ENDBRANCH  22  25
ENDBRANCH   3  21
TORSDOF 3
ENDMDL
MODEL 4
REMARK VINA RESULT:    -7.848      2.520      3.846
REMARK INTER + INTRA:          -9.386
REMARK INTER:                  -8.950
REMARK INTRA:                  -0.437
REMARK UNBOUND:                -0.162
REMARK SMILES CN1C(N)=N[C@](C)(c2cc(NC(=O)c3ccc(F)cn3)ccc2F)CS1(=O)=O
REMARK SMILES IDX 8 1 9 2 10 3 21 4 22 5 23 6 24 7 6 8 25 9 5 10 26 11 3 12
REMARK SMILES IDX 27 13 2 14 28 15 4 16 7 17 1 18 11 21 12 22 13 23 14 25
REMARK SMILES IDX 20 26 15 27 19 28 16 29 17 30 18 31
REMARK H PARENT 4 19 4 20 11 24
ROOT
ATOM      1  C   UNL     1      26.362  12.707  21.798  1.00  0.00     0.018 A 
ATOM      2  C   UNL     1      25.434  12.262  22.739  1.00  0.00     0.035 A 
ATOM      3  C   UNL     1      25.375  12.777  24.014  1.00  0.00     0.042 A 
ATOM      4  C   UNL     1      26.271  13.760  24.418  1.00  0.00     0.029 A 
ATOM      5  C   UNL     1      27.196  14.215  23.496  1.00  0.00     0.042 A 
ATOM      6  C   UNL     1      27.222  13.712  22.210  1.00  0.00     0.129 A 
ATOM      7  F   UNL     1      28.121  14.197  21.315  1.00  0.00    -0.207 F 
ENDROOT
BRANCH   1   8
ATOM      8  C   UNL     1      26.399  12.120  20.395  1.00  0.00     0.105 C 
ATOM      9  C   UNL     1      26.332  13.133  19.275  1.00  0.00     0.195 C 
ATOM     10  N   UNL     1      25.379  11.091  20.203  1.00  0.00    -0.240 NA
ATOM     11  S   UNL     1      24.783  13.999  19.304  1.00  0.00     0.239 S 
ATOM     12  C   UNL     1      24.148  11.395  19.927  1.00  0.00     0.205 C 
ATOM     13  O   UNL     1      24.512  14.410  17.938  1.00  0.00    -0.206 OA
ATOM     14  N   UNL     1      23.702  12.711  19.672  1.00  0.00    -0.243 N 
ATOM     15  O   UNL     1      24.683  14.864  20.438  1.00  0.00    -0.206 OA
ATOM     16  N   UNL     1      23.165  10.447  19.832  1.00  0.00    -0.369 N 
ATOM     17  C   UNL     1      27.707  11.343  20.220  1.00  0.00     0.044 C 
ATOM     18  C   UNL     1      22.279  13.055  19.482  1.00  0.00     0.167 C 
ATOM     19  H   UNL     1      23.378   9.499  19.993  1.00  0.00     0.159 HD
ATOM     20  H   UNL     1      22.245  10.712  19.603  1.00  0.00     0.159 HD
ENDBRANCH   1   8
BRANCH   3  21
ATOM     21  N   UNL     1      24.398  12.241  24.863  1.00  0.00    -0.321 N 
ATOM     22  C   UNL     1      23.074  12.622  24.994  1.00  0.00     0.274 C 
ATOM     23  O   UNL     1      22.567  13.601  24.463  1.00  0.00    -0.267 OA
ATOM     24  H   UNL     1      24.691  11.499  25.440  1.00  0.00     0.170 HD
BRANCH  22  25
ATOM     25  C   UNL     1      22.236  11.723  25.824  1.00  0.00     0.128 A 
ATOM     26  N   UNL     1      22.156  12.021  27.125  1.00  0.00    -0.248 NA
ATOM     27  C   UNL     1      21.583  10.652  25.240  1.00  0.00     0.037 A 
ATOM     28  C   UNL     1      21.405  11.219  27.898  1.00  0.00     0.151 A 
ATOM     29  C   UNL     1      20.813   9.847  26.061  1.00  0.00     0.043 A 
ATOM     30  C   UNL     1      20.723  10.127  27.411  1.00  0.00     0.141 A 
ATOM     31  F   UNL     1      19.981   9.380  28.245  1.00  0.00    -0.205 F 
ENDBRANCH  22  25
ENDBRANCH   3  21
TORSDOF 3
ENDMDL
MODEL 5
REMARK VINA RESULT:    -7.650      4.858      7.212
REMARK INTER + INTRA:          -9.154
REMARK INTER:                  -8.925
REMARK INTRA:                  -0.229
REMARK UNBOUND:                -0.162
REMARK SMILES CN1C(N)=N[C@](C)(c2cc(NC(=O)c3ccc(F)cn3)ccc2F)CS1(=O)=O
REMARK SMILES IDX 8 1 9 2 10 3 21 4 22 5 23 6 24 7 6 8 25 9 5 10 26 11 3 12
REMARK SMILES IDX 27 13 2 14 28 15 4 16 7 17 1 18 11 21 12 22 13 23 14 25
REMARK SMILES IDX 20 26 15 27 19 28 16 29 17 30 18 31
REMARK H PARENT 4 19 4 20 11 24
ROOT
ATOM      1  C   UNL     1      23.691  12.111  20.133  1.00  0.00     0.018 A 
ATOM      2  C   UNL     1      23.238  10.826  19.839  1.00  0.00     0.035 A 
ATOM      3  C   UNL     1      22.654  10.017  20.787  1.00  0.00     0.042 A 
ATOM      4  C   UNL     1      22.516  10.455  22.098  1.00  0.00     0.029 A 
ATOM      5  C   UNL     1      22.958  11.729  22.407  1.00  0.00     0.042 A 
ATOM      6  C   UNL     1      23.512  12.543  21.439  1.00  0.00     0.129 A 
ATOM      7  F   UNL     1      23.911  13.800  21.761  1.00  0.00    -0.207 F 
ENDROOT
BRANCH   1   8
ATOM      8  C   UNL     1      24.329  12.983  19.063  1.00  0.00     0.105 C 
ATOM      9  C   UNL     1      23.689  14.340  18.876  1.00  0.00     0.195 C 
ATOM     10  N   UNL     1      24.425  12.292  17.778  1.00  0.00    -0.240 NA
ATOM     11  S   UNL     1      22.015  14.171  18.309  1.00  0.00     0.239 S 
ATOM     12  C   UNL     1      23.415  12.220  16.966  1.00  0.00     0.205 C 
ATOM     13  O   UNL     1      21.711  15.372  17.552  1.00  0.00    -0.206 OA
ATOM     14  N   UNL     1      22.187  12.885  17.178  1.00  0.00    -0.243 N 
ATOM     15  O   UNL     1      21.168  13.625  19.323  1.00  0.00    -0.206 OA
ATOM     16  N   UNL     1      23.464  11.502  15.801  1.00  0.00    -0.369 N 
ATOM     17  C   UNL     1      25.795  13.225  19.431  1.00  0.00     0.044 C 
ATOM     18  C   UNL     1      21.008  12.694  16.311  1.00  0.00     0.167 C 
ATOM     19  H   UNL     1      24.279  11.003  15.564  1.00  0.00     0.159 HD
ATOM     20  H   UNL     1      22.684  11.485  15.200  1.00  0.00     0.159 HD
ENDBRANCH   1   8
BRANCH   3  21
ATOM     21  N   UNL     1      22.244   8.747  20.362  1.00  0.00    -0.321 N 
ATOM     22  C   UNL     1      21.492   8.417  19.248  1.00  0.00     0.274 C 
ATOM     23  O   UNL     1      20.943   9.221  18.506  1.00  0.00    -0.267 OA
ATOM     24  H   UNL     1      22.527   7.992  20.927  1.00  0.00     0.170 HD
BRANCH  22  25
ATOM     25  C   UNL     1      21.402   6.967  18.951  1.00  0.00     0.128 A 
ATOM     26  N   UNL     1      20.171   6.471  18.789  1.00  0.00    -0.248 NA
ATOM     27  C   UNL     1      22.556   6.210  18.846  1.00  0.00     0.037 A 
ATOM     28  C   UNL     1      20.064   5.158  18.523  1.00  0.00     0.151 A 
ATOM     29  C   UNL     1      22.413   4.862  18.566  1.00  0.00     0.043 A 
ATOM     30  C   UNL     1      21.151   4.323  18.406  1.00  0.00     0.141 A 
ATOM     31  F   UNL     1      20.964   3.022  18.124  1.00  0.00    -0.205 F 
ENDBRANCH  22  25
ENDBRANCH   3  21
TORSDOF 3
ENDMDL
MODEL 6
REMARK VINA RESULT:    -7.401      4.367      6.652
REMARK INTER + INTRA:          -8.861
REMARK INTER:                  -8.506
REMARK INTRA:                  -0.355
REMARK UNBOUND:                -0.162
REMARK SMILES CN1C(N)=N[C@](C)(c2cc(NC(=O)c3ccc(F)cn3)ccc2F)CS1(=O)=O
REMARK SMILES IDX 8 1 9 2 10 3 21 4 22 5 23 6 24 7 6 8 25 9 5 10 26 11 3 12
REMARK SMILES IDX 27 13 2 14 28 15 4 16 7 17 1 18 11 21 12 22 13 23 14 25
REMARK SMILES IDX 20 26 15 27 19 28 16 29 17 30 18 31
REMARK H PARENT 4 19 4 20 11 24
ROOT
ATOM      1  C   UNL     1      24.875  11.592  20.937  1.00  0.00     0.018 A 
ATOM      2  C   UNL     1      24.407  10.322  20.600  1.00  0.00     0.035 A 
ATOM      3  C   UNL     1      23.124   9.912  20.884  1.00  0.00     0.042 A 
ATOM      4  C   UNL     1      22.245  10.759  21.548  1.00  0.00     0.029 A 
ATOM      5  C   UNL     1      22.692  12.024  21.887  1.00  0.00     0.042 A 
ATOM      6  C   UNL     1      23.972  12.433  21.567  1.00  0.00     0.129 A 
ATOM      7  F   UNL     1      24.376  13.690  21.884  1.00  0.00    -0.207 F 
ENDROOT
BRANCH   1   8
ATOM      8  C   UNL     1      26.298  12.016  20.606  1.00  0.00     0.105 C 
ATOM      9  C   UNL     1      26.413  13.256  19.747  1.00  0.00     0.195 C 
ATOM     10  N   UNL     1      27.074  10.925  20.020  1.00  0.00    -0.240 NA
ATOM     11  S   UNL     1      25.697  12.979  18.147  1.00  0.00     0.239 S 
ATOM     12  C   UNL     1      26.985  10.626  18.761  1.00  0.00     0.205 C 
ATOM     13  O   UNL     1      26.390  13.861  17.225  1.00  0.00    -0.206 OA
ATOM     14  N   UNL     1      26.241  11.377  17.825  1.00  0.00    -0.243 N 
ATOM     15  O   UNL     1      24.275  12.849  18.221  1.00  0.00    -0.206 OA
ATOM     16  N   UNL     1      27.638   9.552  18.217  1.00  0.00    -0.369 N 
ATOM     17  C   UNL     1      27.043  12.305  21.912  1.00  0.00     0.044 C 
ATOM     18  C   UNL     1      26.048  10.954  16.424  1.00  0.00     0.167 C 
ATOM     19  H   UNL     1      28.185   8.966  18.791  1.00  0.00     0.159 HD
ATOM     20  H   UNL     1      27.562   9.365  17.254  1.00  0.00     0.159 HD
ENDBRANCH   1   8
BRANCH   3  21
ATOM     21  N   UNL     1      22.780   8.611  20.495  1.00  0.00    -0.321 N 
ATOM     22  C   UNL     1      21.900   8.218  19.503  1.00  0.00     0.274 C 
ATOM     23  O   UNL     1      21.165   8.969  18.875  1.00  0.00    -0.267 OA
ATOM     24  H   UNL     1      23.222   7.884  20.991  1.00  0.00     0.170 HD
BRANCH  22  25
ATOM     25  C   UNL     1      21.909   6.769  19.186  1.00  0.00     0.128 A 
ATOM     26  N   UNL     1      21.128   5.992  19.945  1.00  0.00    -0.248 NA
ATOM     27  C   UNL     1      22.690   6.293  18.147  1.00  0.00     0.037 A 
ATOM     28  C   UNL     1      21.123   4.675  19.680  1.00  0.00     0.151 A 
ATOM     29  C   UNL     1      22.658   4.932  17.895  1.00  0.00     0.043 A 
ATOM     30  C   UNL     1      21.869   4.107  18.672  1.00  0.00     0.141 A 
ATOM     31  F   UNL     1      21.799   2.782  18.459  1.00  0.00    -0.205 F 
ENDBRANCH  22  25
ENDBRANCH   3  21
TORSDOF 3
ENDMDL
MODEL 7
REMARK VINA RESULT:    -7.289      6.643      8.292
REMARK INTER + INTRA:          -8.729
REMARK INTER:                  -8.419
REMARK INTRA:                  -0.310
REMARK UNBOUND:                -0.162
REMARK SMILES CN1C(N)=N[C@](C)(c2cc(NC(=O)c3ccc(F)cn3)ccc2F)CS1(=O)=O
REMARK SMILES IDX 8 1 9 2 10 3 21 4 22 5 23 6 24 7 6 8 25 9 5 10 26 11 3 12
REMARK SMILES IDX 27 13 2 14 28 15 4 16 7 17 1 18 11 21 12 22 13 23 14 25
REMARK SMILES IDX 20 26 15 27 19 28 16 29 17 30 18 31
REMARK H PARENT 4 19 4 20 11 24
ROOT
ATOM      1  C   UNL     1      24.255   6.872  14.897  1.00  0.00     0.018 A 
ATOM      2  C   UNL     1      24.069   7.823  15.899  1.00  0.00     0.035 A 
ATOM      3  C   UNL     1      23.475   7.517  17.103  1.00  0.00     0.042 A 
ATOM      4  C   UNL     1      23.013   6.231  17.353  1.00  0.00     0.029 A 
ATOM      5  C   UNL     1      23.192   5.274  16.370  1.00  0.00     0.042 A 
ATOM      6  C   UNL     1      23.819   5.587  15.180  1.00  0.00     0.129 A 
ATOM      7  F   UNL     1      24.009   4.622  14.244  1.00  0.00    -0.207 F 
ENDROOT
BRANCH   1   8
ATOM      8  C   UNL     1      24.918   7.241  13.578  1.00  0.00     0.105 C 
ATOM      9  C   UNL     1      25.978   6.273  13.102  1.00  0.00     0.195 C 
ATOM     10  N   UNL     1      25.451   8.602  13.594  1.00  0.00    -0.240 NA
ATOM     11  S   UNL     1      27.342   6.229  14.236  1.00  0.00     0.239 S 
ATOM     12  C   UNL     1      26.602   8.877  14.126  1.00  0.00     0.205 C 
ATOM     13  O   UNL     1      28.514   5.863  13.461  1.00  0.00    -0.206 OA
ATOM     14  N   UNL     1      27.490   7.899  14.626  1.00  0.00    -0.243 N 
ATOM     15  O   UNL     1      26.977   5.619  15.477  1.00  0.00    -0.206 OA
ATOM     16  N   UNL     1      27.073  10.158  14.226  1.00  0.00    -0.369 N 
ATOM     17  C   UNL     1      23.846   7.305  12.487  1.00  0.00     0.044 C 
ATOM     18  C   UNL     1      28.738   8.235  15.340  1.00  0.00     0.167 C 
ATOM     19  H   UNL     1      26.526  10.911  13.904  1.00  0.00     0.159 HD
ATOM     20  H   UNL     1      27.960  10.328  14.620  1.00  0.00     0.159 HD
ENDBRANCH   1   8
BRANCH   3  21
ATOM     21  N   UNL     1      23.347   8.565  18.024  1.00  0.00    -0.321 N 
ATOM     22  C   UNL     1      22.228   9.330  18.301  1.00  0.00     0.274 C 
ATOM     23  O   UNL     1      21.177   9.293  17.674  1.00  0.00    -0.267 OA
ATOM     24  H   UNL     1      24.156   8.785  18.540  1.00  0.00     0.170 HD
BRANCH  22  25
ATOM     25  C   UNL     1      22.347  10.224  19.478  1.00  0.00     0.128 A 
ATOM     26  N   UNL     1      22.458  11.531  19.221  1.00  0.00    -0.248 NA
ATOM     27  C   UNL     1      22.329   9.691  20.755  1.00  0.00     0.037 A 
ATOM     28  C   UNL     1      22.572  12.360  20.272  1.00  0.00     0.151 A 
ATOM     29  C   UNL     1      22.442  10.570  21.817  1.00  0.00     0.043 A 
ATOM     30  C   UNL     1      22.570  11.925  21.578  1.00  0.00     0.141 A 
ATOM     31  F   UNL     1      22.674  12.818  22.577  1.00  0.00    -0.205 F 
ENDBRANCH  22  25
ENDBRANCH   3  21
TORSDOF 3
ENDMDL
MODEL 8
REMARK VINA RESULT:    -7.269      4.239      5.766
REMARK INTER + INTRA:          -8.705
REMARK INTER:                  -9.024
REMARK INTRA:                   0.319
REMARK UNBOUND:                -0.162
REMARK SMILES CN1C(N)=N[C@](C)(c2cc(NC(=O)c3ccc(F)cn3)ccc2F)CS1(=O)=O
REMARK SMILES IDX 8 1 9 2 10 3 21 4 22 5 23 6 24 7 6 8 25 9 5 10 26 11 3 12
REMARK SMILES IDX 27 13 2 14 28 15 4 16 7 17 1 18 11 21 12 22 13 23 14 25
REMARK SMILES IDX 20 26 15 27 19 28 16 29 17 30 18 31
REMARK H PARENT 4 19 4 20 11 24
ROOT
ATOM      1  C   UNL     1      23.007   9.970  18.856  1.00  0.00     0.018 A 
ATOM      2  C   UNL     1      22.636   9.972  20.199  1.00  0.00     0.035 A 
ATOM      3  C   UNL     1      23.536  10.221  21.211  1.00  0.00     0.042 A 
ATOM      4  C   UNL     1      24.873  10.460  20.920  1.00  0.00     0.029 A 
ATOM      5  C   UNL     1      25.259  10.465  19.592  1.00  0.00     0.042 A 
ATOM      6  C   UNL     1      24.339  10.246  18.585  1.00  0.00     0.129 A 
ATOM      7  F   UNL     1      24.738  10.285  17.288  1.00  0.00    -0.207 F 
ENDROOT
BRANCH   1   8
ATOM      8  C   UNL     1      21.989   9.695  17.760  1.00  0.00     0.105 C 
ATOM      9  C   UNL     1      20.837   8.803  18.166  1.00  0.00     0.195 C 
ATOM     10  N   UNL     1      22.617   9.181  16.544  1.00  0.00    -0.240 NA
ATOM     11  S   UNL     1      21.418   7.180  18.588  1.00  0.00     0.239 S 
ATOM     12  C   UNL     1      22.933   7.929  16.417  1.00  0.00     0.205 C 
ATOM     13  O   UNL     1      20.324   6.265  18.316  1.00  0.00    -0.206 OA
ATOM     14  N   UNL     1      22.604   6.935  17.365  1.00  0.00    -0.243 N 
ATOM     15  O   UNL     1      22.174   7.190  19.801  1.00  0.00    -0.206 OA
ATOM     16  N   UNL     1      23.601   7.452  15.321  1.00  0.00    -0.369 N 
ATOM     17  C   UNL     1      21.387  11.025  17.300  1.00  0.00     0.044 C 
ATOM     18  C   UNL     1      23.078   5.541  17.267  1.00  0.00     0.167 C 
ATOM     19  H   UNL     1      23.873   8.069  14.603  1.00  0.00     0.159 HD
ATOM     20  H   UNL     1      23.808   6.492  15.250  1.00  0.00     0.159 HD
ENDBRANCH   1   8
BRANCH   3  21
ATOM     21  N   UNL     1      23.034  10.191  22.519  1.00  0.00    -0.321 N 
ATOM     22  C   UNL     1      22.632  11.255  23.307  1.00  0.00     0.274 C 
ATOM     23  O   UNL     1      22.776  12.437  23.022  1.00  0.00    -0.267 OA
ATOM     24  H   UNL     1      22.957   9.299  22.929  1.00  0.00     0.170 HD
BRANCH  22  25
ATOM     25  C   UNL     1      21.948  10.885  24.570  1.00  0.00     0.128 A 
ATOM     26  N   UNL     1      21.726   9.580  24.763  1.00  0.00    -0.248 NA
ATOM     27  C   UNL     1      21.586  11.868  25.474  1.00  0.00     0.037 A 
ATOM     28  C   UNL     1      21.104   9.221  25.898  1.00  0.00     0.151 A 
ATOM     29  C   UNL     1      20.951  11.466  26.636  1.00  0.00     0.043 A 
ATOM     30  C   UNL     1      20.700  10.125  26.854  1.00  0.00     0.141 A 
ATOM     31  F   UNL     1      20.096   9.687  27.972  1.00  0.00    -0.205 F 
ENDBRANCH  22  25
ENDBRANCH   3  21
TORSDOF 3
ENDMDL
MODEL 9
REMARK VINA RESULT:    -7.233      4.634      6.220
REMARK INTER + INTRA:          -8.663
REMARK INTER:                  -8.427
REMARK INTRA:                  -0.236
REMARK UNBOUND:                -0.162
REMARK SMILES CN1C(N)=N[C@](C)(c2cc(NC(=O)c3ccc(F)cn3)ccc2F)CS1(=O)=O
REMARK SMILES IDX 8 1 9 2 10 3 21 4 22 5 23 6 24 7 6 8 25 9 5 10 26 11 3 12
REMARK SMILES IDX 27 13 2 14 28 15 4 16 7 17 1 18 11 21 12 22 13 23 14 25
REMARK SMILES IDX 20 26 15 27 19 28 16 29 17 30 18 31
REMARK H PARENT 4 19 4 20 11 24
ROOT
ATOM      1  C   UNL     1      21.611   8.200  17.201  1.00  0.00     0.018 A 
ATOM      2  C   UNL     1      21.839   8.815  18.431  1.00  0.00     0.035 A 
ATOM      3  C   UNL     1      22.111   8.098  19.574  1.00  0.00     0.042 A 
ATOM      4  C   UNL     1      22.147   6.710  19.541  1.00  0.00     0.029 A 
ATOM      5  C   UNL     1      21.926   6.082  18.328  1.00  0.00     0.042 A 
ATOM      6  C   UNL     1      21.686   6.815  17.183  1.00  0.00     0.129 A 
ATOM      7  F   UNL     1      21.502   6.176  16.000  1.00  0.00    -0.207 F 
ENDROOT
BRANCH   1   8
ATOM      8  C   UNL     1      21.315   9.020  15.955  1.00  0.00     0.105 C 
ATOM      9  C   UNL     1      22.291   8.830  14.816  1.00  0.00     0.195 C 
ATOM     10  N   UNL     1      21.167  10.443  16.257  1.00  0.00    -0.240 NA
ATOM     11  S   UNL     1      23.913   9.381  15.281  1.00  0.00     0.239 S 
ATOM     12  C   UNL     1      22.196  11.221  16.395  1.00  0.00     0.205 C 
ATOM     13  O   UNL     1      24.578   9.791  14.057  1.00  0.00    -0.206 OA
ATOM     14  N   UNL     1      23.527  10.813  16.156  1.00  0.00    -0.243 N 
ATOM     15  O   UNL     1      24.498   8.526  16.266  1.00  0.00    -0.206 OA
ATOM     16  N   UNL     1      22.075  12.534  16.764  1.00  0.00    -0.369 N 
ATOM     17  C   UNL     1      19.929   8.636  15.428  1.00  0.00     0.044 C 
ATOM     18  C   UNL     1      24.694  11.672  16.436  1.00  0.00     0.167 C 
ATOM     19  H   UNL     1      21.186  12.912  16.953  1.00  0.00     0.159 HD
ATOM     20  H   UNL     1      22.877  13.100  16.841  1.00  0.00     0.159 HD
ENDBRANCH   1   8
BRANCH   3  21
ATOM     21  N   UNL     1      22.318   8.839  20.745  1.00  0.00    -0.321 N 
ATOM     22  C   UNL     1      23.263   9.822  20.981  1.00  0.00     0.274 C 
ATOM     23  O   UNL     1      24.176  10.119  20.222  1.00  0.00    -0.267 OA
ATOM     24  H   UNL     1      21.715   8.633  21.495  1.00  0.00     0.170 HD
BRANCH  22  25
ATOM     25  C   UNL     1      23.093  10.570  22.251  1.00  0.00     0.128 A 
ATOM     26  N   UNL     1      23.332   9.889  23.377  1.00  0.00    -0.248 NA
ATOM     27  C   UNL     1      22.718  11.902  22.223  1.00  0.00     0.037 A 
ATOM     28  C   UNL     1      23.181  10.545  24.539  1.00  0.00     0.151 A 
ATOM     29  C   UNL     1      22.577  12.552  23.437  1.00  0.00     0.043 A 
ATOM     30  C   UNL     1      22.806  11.867  24.614  1.00  0.00     0.141 A 
ATOM     31  F   UNL     1      22.690  12.458  25.816  1.00  0.00    -0.205 F 
ENDBRANCH  22  25
ENDBRANCH   3  21
TORSDOF 3
ENDMDL
MODEL 10
REMARK VINA RESULT:    -7.146      5.022      6.889
REMARK INTER + INTRA:          -8.562
REMARK INTER:                  -8.934
REMARK INTRA:                   0.373
REMARK UNBOUND:                -0.162
REMARK SMILES CN1C(N)=N[C@](C)(c2cc(NC(=O)c3ccc(F)cn3)ccc2F)CS1(=O)=O
REMARK SMILES IDX 8 1 9 2 10 3 21 4 22 5 23 6 24 7 6 8 25 9 5 10 26 11 3 12
REMARK SMILES IDX 27 13 2 14 28 15 4 16 7 17 1 18 11 21 12 22 13 23 14 25
REMARK SMILES IDX 20 26 15 27 19 28 16 29 17 30 18 31
REMARK H PARENT 4 19 4 20 11 24
ROOT
ATOM      1  C   UNL     1      22.676   9.140  17.407  1.00  0.00     0.018 A 
ATOM      2  C   UNL     1      22.613   9.529  18.744  1.00  0.00     0.035 A 
ATOM      3  C   UNL     1      23.682  10.098  19.397  1.00  0.00     0.042 A 
ATOM      4  C   UNL     1      24.890  10.286  18.737  1.00  0.00     0.029 A 
ATOM      5  C   UNL     1      24.971   9.908  17.408  1.00  0.00     0.042 A 
ATOM      6  C   UNL     1      23.879   9.368  16.757  1.00  0.00     0.129 A 
ATOM      7  F   UNL     1      23.976   9.033  15.445  1.00  0.00    -0.207 F 
ENDROOT
BRANCH   1   8
ATOM      8  C   UNL     1      21.475   8.516  16.713  1.00  0.00     0.105 C 
ATOM      9  C   UNL     1      20.465   7.872  17.635  1.00  0.00     0.195 C 
ATOM     10  N   UNL     1      21.874   7.574  15.668  1.00  0.00    -0.240 NA
ATOM     11  S   UNL     1      21.188   6.497  18.494  1.00  0.00     0.239 S 
ATOM     12  C   UNL     1      22.213   6.353  15.944  1.00  0.00     0.205 C 
ATOM     13  O   UNL     1      20.103   5.580  18.797  1.00  0.00    -0.206 OA
ATOM     14  N   UNL     1      22.120   5.785  17.235  1.00  0.00    -0.243 N 
ATOM     15  O   UNL     1      22.167   6.924  19.445  1.00  0.00    -0.206 OA
ATOM     16  N   UNL     1      22.672   5.488  14.988  1.00  0.00    -0.369 N 
ATOM     17  C   UNL     1      20.737   9.605  15.930  1.00  0.00     0.044 C 
ATOM     18  C   UNL     1      22.626   4.436  17.558  1.00  0.00     0.167 C 
ATOM     19  H   UNL     1      22.771   5.791  14.057  1.00  0.00     0.159 HD
ATOM     20  H   UNL     1      22.903   4.562  15.231  1.00  0.00     0.159 HD
ENDBRANCH   1   8
BRANCH   3  21
ATOM     21  N   UNL     1      23.487  10.441  20.741  1.00  0.00    -0.321 N 
ATOM     22  C   UNL     1      22.869  11.566  21.258  1.00  0.00     0.274 C 
ATOM     23  O   UNL     1      22.497  12.530  20.600  1.00  0.00    -0.267 OA
ATOM     24  H   UNL     1      23.833   9.800  21.403  1.00  0.00     0.170 HD
BRANCH  22  25
ATOM     25  C   UNL     1      22.629  11.542  22.721  1.00  0.00     0.128 A 
ATOM     26  N   UNL     1      22.475  10.336  23.276  1.00  0.00    -0.248 NA
ATOM     27  C   UNL     1      22.587  12.728  23.434  1.00  0.00     0.037 A 
ATOM     28  C   UNL     1      22.253  10.289  24.600  1.00  0.00     0.151 A 
ATOM     29  C   UNL     1      22.362  12.646  24.797  1.00  0.00     0.043 A 
ATOM     30  C   UNL     1      22.187  11.412  25.393  1.00  0.00     0.141 A 
ATOM     31  F   UNL     1      21.975  11.283  26.714  1.00  0.00    -0.205 F 
ENDBRANCH  22  25
ENDBRANCH   3  21
TORSDOF 3
ENDMDL
MODEL 11
REMARK VINA RESULT:    -7.142      2.726      3.996
REMARK INTER + INTRA:          -8.556
REMARK INTER:                  -8.205
REMARK INTRA:                  -0.351
REMARK UNBOUND:                -0.162
REMARK SMILES CN1C(N)=N[C@](C)(c2cc(NC(=O)c3ccc(F)cn3)ccc2F)CS1(=O)=O
REMARK SMILES IDX 8 1 9 2 10 3 21 4 22 5 23 6 24 7 6 8 25 9 5 10 26 11 3 12
REMARK SMILES IDX 27 13 2 14 28 15 4 16 7 17 1 18 11 21 12 22 13 23 14 25
REMARK SMILES IDX 20 26 15 27 19 28 16 29 17 30 18 31
REMARK H PARENT 4 19 4 20 11 24
ROOT
ATOM      1  C   UNL     1      27.744  14.105  21.678  1.00  0.00     0.018 A 
ATOM      2  C   UNL     1      26.805  13.313  22.337  1.00  0.00     0.035 A 
ATOM      3  C   UNL     1      25.487  13.689  22.468  1.00  0.00     0.042 A 
ATOM      4  C   UNL     1      25.048  14.904  21.957  1.00  0.00     0.029 A 
ATOM      5  C   UNL     1      25.966  15.702  21.297  1.00  0.00     0.042 A 
ATOM      6  C   UNL     1      27.277  15.297  21.145  1.00  0.00     0.129 A 
ATOM      7  F   UNL     1      28.151  16.084  20.467  1.00  0.00    -0.207 F 
ENDROOT
BRANCH   1   8
ATOM      8  C   UNL     1      29.192  13.660  21.547  1.00  0.00     0.105 C 
ATOM      9  C   UNL     1      29.699  13.540  20.127  1.00  0.00     0.195 C 
ATOM     10  N   UNL     1      29.455  12.423  22.280  1.00  0.00    -0.240 NA
ATOM     11  S   UNL     1      28.813  12.277  19.249  1.00  0.00     0.239 S 
ATOM     12  C   UNL     1      29.165  11.261  21.783  1.00  0.00     0.205 C 
ATOM     13  O   UNL     1      29.714  11.770  18.230  1.00  0.00    -0.206 OA
ATOM     14  N   UNL     1      28.689  11.066  20.467  1.00  0.00    -0.243 N 
ATOM     15  O   UNL     1      27.456  12.657  19.006  1.00  0.00    -0.206 OA
ATOM     16  N   UNL     1      29.324  10.101  22.493  1.00  0.00    -0.369 N 
ATOM     17  C   UNL     1      30.088  14.678  22.258  1.00  0.00     0.044 C 
ATOM     18  C   UNL     1      28.246   9.753  19.958  1.00  0.00     0.167 C 
ATOM     19  H   UNL     1      29.652  10.134  23.421  1.00  0.00     0.159 HD
ATOM     20  H   UNL     1      29.111   9.235  22.077  1.00  0.00     0.159 HD
ENDBRANCH   1   8
BRANCH   3  21
ATOM     21  N   UNL     1      24.647  12.803  23.155  1.00  0.00    -0.321 N 
ATOM     22  C   UNL     1      24.393  12.743  24.514  1.00  0.00     0.274 C 
ATOM     23  O   UNL     1      24.979  13.393  25.370  1.00  0.00    -0.267 OA
ATOM     24  H   UNL     1      24.177  12.139  22.600  1.00  0.00     0.170 HD
BRANCH  22  25
ATOM     25  C   UNL     1      23.293  11.831  24.913  1.00  0.00     0.128 A 
ATOM     26  N   UNL     1      23.464  10.536  24.626  1.00  0.00    -0.248 NA
ATOM     27  C   UNL     1      22.175  12.335  25.554  1.00  0.00     0.037 A 
ATOM     28  C   UNL     1      22.479   9.691  24.973  1.00  0.00     0.151 A 
ATOM     29  C   UNL     1      21.181  11.439  25.905  1.00  0.00     0.043 A 
ATOM     30  C   UNL     1      21.328  10.098  25.609  1.00  0.00     0.141 A 
ATOM     31  F   UNL     1      20.393   9.190  25.938  1.00  0.00    -0.205 F 
ENDBRANCH  22  25
ENDBRANCH   3  21
TORSDOF 3
ENDMDL
MODEL 12
REMARK VINA RESULT:    -7.059      8.410     11.805
REMARK INTER + INTRA:          -8.459
REMARK INTER:                  -8.178
REMARK INTRA:                  -0.281
REMARK UNBOUND:                -0.162
REMARK SMILES CN1C(N)=N[C@](C)(c2cc(NC(=O)c3ccc(F)cn3)ccc2F)CS1(=O)=O
REMARK SMILES IDX 8 1 9 2 10 3 21 4 22 5 23 6 24 7 6 8 25 9 5 10 26 11 3 12
REMARK SMILES IDX 27 13 2 14 28 15 4 16 7 17 1 18 11 21 12 22 13 23 14 25
REMARK SMILES IDX 20 26 15 27 19 28 16 29 17 30 18 31
REMARK H PARENT 4 19 4 20 11 24
ROOT
ATOM      1  C   UNL     1      24.048   6.673  14.888  1.00  0.00     0.018 A 
ATOM      2  C   UNL     1      25.427   6.820  15.024  1.00  0.00     0.035 A 
ATOM      3  C   UNL     1      26.307   6.472  14.023  1.00  0.00     0.042 A 
ATOM      4  C   UNL     1      25.839   5.933  12.832  1.00  0.00     0.029 A 
ATOM      5  C   UNL     1      24.472   5.783  12.678  1.00  0.00     0.042 A 
ATOM      6  C   UNL     1      23.600   6.166  13.678  1.00  0.00     0.129 A 
ATOM      7  F   UNL     1      22.261   6.036  13.491  1.00  0.00    -0.207 F 
ENDROOT
BRANCH   1   8
ATOM      8  C   UNL     1      23.102   7.069  16.011  1.00  0.00     0.105 C 
ATOM      9  C   UNL     1      21.883   7.852  15.576  1.00  0.00     0.195 C 
ATOM     10  N   UNL     1      23.794   7.775  17.088  1.00  0.00    -0.240 NA
ATOM     11  S   UNL     1      22.357   9.416  14.882  1.00  0.00     0.239 S 
ATOM     12  C   UNL     1      24.061   9.042  17.011  1.00  0.00     0.205 C 
ATOM     13  O   UNL     1      21.247  10.323  15.109  1.00  0.00    -0.206 OA
ATOM     14  N   UNL     1      23.619   9.876  15.960  1.00  0.00    -0.243 N 
ATOM     15  O   UNL     1      23.022   9.256  13.627  1.00  0.00    -0.206 OA
ATOM     16  N   UNL     1      24.786   9.696  17.971  1.00  0.00    -0.369 N 
ATOM     17  C   UNL     1      22.596   5.800  16.703  1.00  0.00     0.044 C 
ATOM     18  C   UNL     1      24.035  11.286  15.821  1.00  0.00     0.167 C 
ATOM     19  H   UNL     1      25.138   9.200  18.745  1.00  0.00     0.159 HD
ATOM     20  H   UNL     1      24.954  10.663  17.888  1.00  0.00     0.159 HD
ENDBRANCH   1   8
BRANCH   3  21
ATOM     21  N   UNL     1      27.668   6.668  14.289  1.00  0.00    -0.321 N 
ATOM     22  C   UNL     1      28.553   5.804  14.910  1.00  0.00     0.274 C 
ATOM     23  O   UNL     1      28.245   4.753  15.456  1.00  0.00    -0.267 OA
ATOM     24  H   UNL     1      28.044   7.529  13.995  1.00  0.00     0.170 HD
BRANCH  22  25
ATOM     25  C   UNL     1      29.978   6.210  14.854  1.00  0.00     0.128 A 
ATOM     26  N   UNL     1      30.425   6.950  15.875  1.00  0.00    -0.248 NA
ATOM     27  C   UNL     1      30.769   5.812  13.790  1.00  0.00     0.037 A 
ATOM     28  C   UNL     1      31.712   7.333  15.844  1.00  0.00     0.151 A 
ATOM     29  C   UNL     1      32.092   6.217  13.790  1.00  0.00     0.043 A 
ATOM     30  C   UNL     1      32.574   6.993  14.826  1.00  0.00     0.141 A 
ATOM     31  F   UNL     1      33.853   7.402  14.874  1.00  0.00    -0.205 F 
ENDBRANCH  22  25
ENDBRANCH   3  21
TORSDOF 3
ENDMDL
MODEL 13
REMARK VINA RESULT:    -6.950      2.406      3.499
REMARK INTER + INTRA:          -8.331
REMARK INTER:                  -8.748
REMARK INTRA:                   0.417
REMARK UNBOUND:                -0.162
REMARK SMILES CN1C(N)=N[C@](C)(c2cc(NC(=O)c3ccc(F)cn3)ccc2F)CS1(=O)=O
REMARK SMILES IDX 8 1 9 2 10 3 21 4 22 5 23 6 24 7 6 8 25 9 5 10 26 11 3 12
REMARK SMILES IDX 27 13 2 14 28 15 4 16 7 17 1 18 11 21 12 22 13 23 14 25
REMARK SMILES IDX 20 26 15 27 19 28 16 29 17 30 18 31
REMARK H PARENT 4 19 4 20 11 24
ROOT
ATOM      1  C   UNL     1      25.892  13.372  21.423  1.00  0.00     0.018 A 
ATOM      2  C   UNL     1      25.038  12.834  22.384  1.00  0.00     0.035 A 
ATOM      3  C   UNL     1      25.416  12.671  23.697  1.00  0.00     0.042 A 
ATOM      4  C   UNL     1      26.694  13.025  24.110  1.00  0.00     0.029 A 
ATOM      5  C   UNL     1      27.555  13.565  23.171  1.00  0.00     0.042 A 
ATOM      6  C   UNL     1      27.151  13.752  21.864  1.00  0.00     0.129 A 
ATOM      7  F   UNL     1      28.005  14.311  20.968  1.00  0.00    -0.207 F 
ENDROOT
BRANCH   1   8
ATOM      8  C   UNL     1      25.444  13.542  19.980  1.00  0.00     0.105 C 
ATOM      9  C   UNL     1      24.445  12.516  19.494  1.00  0.00     0.195 C 
ATOM     10  N   UNL     1      26.577  13.616  19.059  1.00  0.00    -0.240 NA
ATOM     11  S   UNL     1      25.160  10.892  19.501  1.00  0.00     0.239 S 
ATOM     12  C   UNL     1      27.179  12.548  18.633  1.00  0.00     0.205 C 
ATOM     13  O   UNL     1      24.474  10.132  18.472  1.00  0.00    -0.206 OA
ATOM     14  N   UNL     1      26.742  11.235  18.913  1.00  0.00    -0.243 N 
ATOM     15  O   UNL     1      25.386  10.421  20.832  1.00  0.00    -0.206 OA
ATOM     16  N   UNL     1      28.295  12.606  17.841  1.00  0.00    -0.369 N 
ATOM     17  C   UNL     1      24.787  14.917  19.825  1.00  0.00     0.044 C 
ATOM     18  C   UNL     1      27.506  10.032  18.527  1.00  0.00     0.167 C 
ATOM     19  H   UNL     1      28.676  13.478  17.591  1.00  0.00     0.159 HD
ATOM     20  H   UNL     1      28.715  11.774  17.522  1.00  0.00     0.159 HD
ENDBRANCH   1   8
BRANCH   3  21
ATOM     21  N   UNL     1      24.462  12.115  24.561  1.00  0.00    -0.321 N 
ATOM     22  C   UNL     1      23.223  12.622  24.909  1.00  0.00     0.274 C 
ATOM     23  O   UNL     1      22.805  13.732  24.606  1.00  0.00    -0.267 OA
ATOM     24  H   UNL     1      24.706  11.254  24.971  1.00  0.00     0.170 HD
BRANCH  22  25
ATOM     25  C   UNL     1      22.355  11.698  25.679  1.00  0.00     0.128 A 
ATOM     26  N   UNL     1      22.085  12.051  26.940  1.00  0.00    -0.248 NA
ATOM     27  C   UNL     1      21.866  10.550  25.081  1.00  0.00     0.037 A 
ATOM     28  C   UNL     1      21.304  11.228  27.659  1.00  0.00     0.151 A 
ATOM     29  C   UNL     1      21.059   9.725  25.845  1.00  0.00     0.043 A 
ATOM     30  C   UNL     1      20.775  10.062  27.155  1.00  0.00     0.141 A 
ATOM     31  F   UNL     1      19.990   9.297  27.932  1.00  0.00    -0.205 F 
ENDBRANCH  22  25
ENDBRANCH   3  21
TORSDOF 3
ENDMDL
MODEL 14
REMARK VINA RESULT:    -6.943      5.444      6.974
REMARK INTER + INTRA:          -8.323
REMARK INTER:                  -7.922
REMARK INTRA:                  -0.401
REMARK UNBOUND:                -0.162
REMARK SMILES CN1C(N)=N[C@](C)(c2cc(NC(=O)c3ccc(F)cn3)ccc2F)CS1(=O)=O
REMARK SMILES IDX 8 1 9 2 10 3 21 4 22 5 23 6 24 7 6 8 25 9 5 10 26 11 3 12
REMARK SMILES IDX 27 13 2 14 28 15 4 16 7 17 1 18 11 21 12 22 13 23 14 25
REMARK SMILES IDX 20 26 15 27 19 28 16 29 17 30 18 31
REMARK H PARENT 4 19 4 20 11 24
ROOT
ATOM      1  C   UNL     1      22.328  11.029  15.833  1.00  0.00     0.018 A 
ATOM      2  C   UNL     1      22.489  10.909  17.213  1.00  0.00     0.035 A 
ATOM      3  C   UNL     1      21.820  11.716  18.105  1.00  0.00     0.042 A 
ATOM      4  C   UNL     1      20.964  12.711  17.649  1.00  0.00     0.029 A 
ATOM      5  C   UNL     1      20.790  12.842  16.282  1.00  0.00     0.042 A 
ATOM      6  C   UNL     1      21.443  12.004  15.400  1.00  0.00     0.129 A 
ATOM      7  F   UNL     1      21.232  12.135  14.065  1.00  0.00    -0.207 F 
ENDROOT
BRANCH   1   8
ATOM      8  C   UNL     1      23.079  10.119  14.873  1.00  0.00     0.105 C 
ATOM      9  C   UNL     1      22.215   9.414  13.851  1.00  0.00     0.195 C 
ATOM     10  N   UNL     1      23.917   9.150  15.577  1.00  0.00    -0.240 NA
ATOM     11  S   UNL     1      21.081   8.305  14.647  1.00  0.00     0.239 S 
ATOM     12  C   UNL     1      23.426   8.052  16.064  1.00  0.00     0.205 C 
ATOM     13  O   UNL     1      20.797   7.248  13.693  1.00  0.00    -0.206 OA
ATOM     14  N   UNL     1      22.092   7.632  15.867  1.00  0.00    -0.243 N 
ATOM     15  O   UNL     1      20.081   9.013  15.383  1.00  0.00    -0.206 OA
ATOM     16  N   UNL     1      24.180   7.179  16.802  1.00  0.00    -0.369 N 
ATOM     17  C   UNL     1      24.100  10.955  14.097  1.00  0.00     0.044 C 
ATOM     18  C   UNL     1      21.515   6.446  16.530  1.00  0.00     0.167 C 
ATOM     19  H   UNL     1      25.124   7.384  16.993  1.00  0.00     0.159 HD
ATOM     20  H   UNL     1      23.779   6.346  17.140  1.00  0.00     0.159 HD
ENDBRANCH   1   8
BRANCH   3  21
ATOM     21  N   UNL     1      22.073  11.493  19.465  1.00  0.00    -0.321 N 
ATOM     22  C   UNL     1      22.819  12.267  20.336  1.00  0.00     0.274 C 
ATOM     23  O   UNL     1      23.500  13.231  20.014  1.00  0.00    -0.267 OA
ATOM     24  H   UNL     1      21.668  10.682  19.849  1.00  0.00     0.170 HD
BRANCH  22  25
ATOM     25  C   UNL     1      22.725  11.880  21.765  1.00  0.00     0.128 A 
ATOM     26  N   UNL     1      22.776  12.878  22.653  1.00  0.00    -0.248 NA
ATOM     27  C   UNL     1      22.584  10.548  22.112  1.00  0.00     0.037 A 
ATOM     28  C   UNL     1      22.697  12.552  23.954  1.00  0.00     0.151 A 
ATOM     29  C   UNL     1      22.500  10.244  23.459  1.00  0.00     0.043 A 
ATOM     30  C   UNL     1      22.562  11.256  24.398  1.00  0.00     0.141 A 
ATOM     31  F   UNL     1      22.475  11.010  25.716  1.00  0.00    -0.205 F 
ENDBRANCH  22  25
ENDBRANCH   3  21
TORSDOF 3
ENDMDL
MODEL 15
REMARK VINA RESULT:    -6.920      3.546      5.877
REMARK INTER + INTRA:          -8.295
REMARK INTER:                  -8.934
REMARK INTRA:                   0.639
REMARK UNBOUND:                -0.162
REMARK SMILES CN1C(N)=N[C@](C)(c2cc(NC(=O)c3ccc(F)cn3)ccc2F)CS1(=O)=O
REMARK SMILES IDX 8 1 9 2 10 3 21 4 22 5 23 6 24 7 6 8 25 9 5 10 26 11 3 12
REMARK SMILES IDX 27 13 2 14 28 15 4 16 7 17 1 18 11 21 12 22 13 23 14 25
REMARK SMILES IDX 20 26 15 27 19 28 16 29 17 30 18 31
REMARK H PARENT 4 19 4 20 11 24
ROOT
ATOM      1  C   UNL     1      23.736  12.329  21.151  1.00  0.00     0.018 A 
ATOM      2  C   UNL     1      23.341  11.087  20.656  1.00  0.00     0.035 A 
ATOM      3  C   UNL     1      22.641  10.180  21.419  1.00  0.00     0.042 A 
ATOM      4  C   UNL     1      22.319  10.470  22.739  1.00  0.00     0.029 A 
ATOM      5  C   UNL     1      22.701  11.700  23.246  1.00  0.00     0.042 A 
ATOM      6  C   UNL     1      23.375  12.613  22.459  1.00  0.00     0.129 A 
ATOM      7  F   UNL     1      23.713  13.824  22.971  1.00  0.00    -0.207 F 
ENDROOT
BRANCH   1   8
ATOM      8  C   UNL     1      24.507  13.311  20.282  1.00  0.00     0.105 C 
ATOM      9  C   UNL     1      25.553  12.689  19.385  1.00  0.00     0.195 C 
ATOM     10  N   UNL     1      25.098  14.392  21.069  1.00  0.00    -0.240 NA
ATOM     11  S   UNL     1      26.831  11.922  20.350  1.00  0.00     0.239 S 
ATOM     12  C   UNL     1      26.219  14.239  21.703  1.00  0.00     0.205 C 
ATOM     13  O   UNL     1      28.037  11.957  19.542  1.00  0.00    -0.206 OA
ATOM     14  N   UNL     1      27.025  13.083  21.606  1.00  0.00    -0.243 N 
ATOM     15  O   UNL     1      26.352  10.760  21.030  1.00  0.00    -0.206 OA
ATOM     16  N   UNL     1      26.739  15.213  22.513  1.00  0.00    -0.369 N 
ATOM     17  C   UNL     1      23.518  14.048  19.374  1.00  0.00     0.044 C 
ATOM     18  C   UNL     1      28.233  12.874  22.428  1.00  0.00     0.167 C 
ATOM     19  H   UNL     1      26.250  16.057  22.644  1.00  0.00     0.159 HD
ATOM     20  H   UNL     1      27.602  15.069  22.965  1.00  0.00     0.159 HD
ENDBRANCH   1   8
BRANCH   3  21
ATOM     21  N   UNL     1      22.306   8.967  20.802  1.00  0.00    -0.321 N 
ATOM     22  C   UNL     1      21.789   8.764  19.535  1.00  0.00     0.274 C 
ATOM     23  O   UNL     1      21.413   9.649  18.777  1.00  0.00    -0.267 OA
ATOM     24  H   UNL     1      22.459   8.156  21.339  1.00  0.00     0.170 HD
BRANCH  22  25
ATOM     25  C   UNL     1      21.739   7.350  19.091  1.00  0.00     0.128 A 
ATOM     26  N   UNL     1      20.948   6.534  19.796  1.00  0.00    -0.248 NA
ATOM     27  C   UNL     1      22.480   6.944  17.994  1.00  0.00     0.037 A 
ATOM     28  C   UNL     1      20.890   5.248  19.414  1.00  0.00     0.151 A 
ATOM     29  C   UNL     1      22.394   5.613  17.622  1.00  0.00     0.043 A 
ATOM     30  C   UNL     1      21.593   4.748  18.342  1.00  0.00     0.141 A 
ATOM     31  F   UNL     1      21.472   3.451  18.013  1.00  0.00    -0.205 F 
ENDBRANCH  22  25
ENDBRANCH   3  21
TORSDOF 3
ENDMDL
MODEL 16
REMARK VINA RESULT:    -6.908      3.678      6.161
REMARK INTER + INTRA:          -8.281
REMARK INTER:                  -7.895
REMARK INTRA:                  -0.386
REMARK UNBOUND:                -0.162
REMARK SMILES CN1C(N)=N[C@](C)(c2cc(NC(=O)c3ccc(F)cn3)ccc2F)CS1(=O)=O
REMARK SMILES IDX 8 1 9 2 10 3 21 4 22 5 23 6 24 7 6 8 25 9 5 10 26 11 3 12
REMARK SMILES IDX 27 13 2 14 28 15 4 16 7 17 1 18 11 21 12 22 13 23 14 25
REMARK SMILES IDX 20 26 15 27 19 28 16 29 17 30 18 31
REMARK H PARENT 4 19 4 20 11 24
ROOT
ATOM      1  C   UNL     1      25.111  12.309  22.339  1.00  0.00     0.018 A 
ATOM      2  C   UNL     1      24.560  11.209  21.683  1.00  0.00     0.035 A 
ATOM      3  C   UNL     1      23.265  10.796  21.900  1.00  0.00     0.042 A 
ATOM      4  C   UNL     1      22.458  11.461  22.814  1.00  0.00     0.029 A 
ATOM      5  C   UNL     1      22.987  12.557  23.472  1.00  0.00     0.042 A 
ATOM      6  C   UNL     1      24.278  12.980  23.220  1.00  0.00     0.129 A 
ATOM      7  F   UNL     1      24.764  14.077  23.857  1.00  0.00    -0.207 F 
ENDROOT
BRANCH   1   8
ATOM      8  C   UNL     1      26.545  12.743  22.075  1.00  0.00     0.105 C 
ATOM      9  C   UNL     1      26.702  14.157  21.562  1.00  0.00     0.195 C 
ATOM     10  N   UNL     1      27.248  11.809  21.197  1.00  0.00    -0.240 NA
ATOM     11  S   UNL     1      25.931  14.336  19.973  1.00  0.00     0.239 S 
ATOM     12  C   UNL     1      27.111  11.851  19.908  1.00  0.00     0.205 C 
ATOM     13  O   UNL     1      26.644  15.397  19.284  1.00  0.00    -0.206 OA
ATOM     14  N   UNL     1      26.382  12.851  19.227  1.00  0.00    -0.243 N 
ATOM     15  O   UNL     1      24.507  14.253  20.065  1.00  0.00    -0.206 OA
ATOM     16  N   UNL     1      27.693  10.928  19.081  1.00  0.00    -0.369 N 
ATOM     17  C   UNL     1      27.338  12.649  23.382  1.00  0.00     0.044 C 
ATOM     18  C   UNL     1      26.132  12.815  17.773  1.00  0.00     0.167 C 
ATOM     19  H   UNL     1      28.223  10.190  19.462  1.00  0.00     0.159 HD
ATOM     20  H   UNL     1      27.583  11.001  18.105  1.00  0.00     0.159 HD
ENDBRANCH   1   8
BRANCH   3  21
ATOM     21  N   UNL     1      22.835   9.674  21.179  1.00  0.00    -0.321 N 
ATOM     22  C   UNL     1      22.259   9.633  19.921  1.00  0.00     0.274 C 
ATOM     23  O   UNL     1      21.909  10.612  19.275  1.00  0.00    -0.267 OA
ATOM     24  H   UNL     1      22.958   8.805  21.624  1.00  0.00     0.170 HD
BRANCH  22  25
ATOM     25  C   UNL     1      22.107   8.278  19.339  1.00  0.00     0.128 A 
ATOM     26  N   UNL     1      21.230   7.469  19.941  1.00  0.00    -0.248 NA
ATOM     27  C   UNL     1      22.847   7.917  18.226  1.00  0.00     0.037 A 
ATOM     28  C   UNL     1      21.078   6.234  19.433  1.00  0.00     0.151 A 
ATOM     29  C   UNL     1      22.664   6.641  17.722  1.00  0.00     0.043 A 
ATOM     30  C   UNL     1      21.772   5.782  18.334  1.00  0.00     0.141 A 
ATOM     31  F   UNL     1      21.554   4.538  17.876  1.00  0.00    -0.205 F 
ENDBRANCH  22  25
ENDBRANCH   3  21
TORSDOF 3
ENDMDL
MODEL 17
REMARK VINA RESULT:    -6.902      7.042     10.486
REMARK INTER + INTRA:          -8.275
REMARK INTER:                  -7.825
REMARK INTRA:                  -0.450
REMARK UNBOUND:                -0.162
REMARK SMILES CN1C(N)=N[C@](C)(c2cc(NC(=O)c3ccc(F)cn3)ccc2F)CS1(=O)=O
REMARK SMILES IDX 8 1 9 2 10 3 21 4 22 5 23 6 24 7 6 8 25 9 5 10 26 11 3 12
REMARK SMILES IDX 27 13 2 14 28 15 4 16 7 17 1 18 11 21 12 22 13 23 14 25
REMARK SMILES IDX 20 26 15 27 19 28 16 29 17 30 18 31
REMARK H PARENT 4 19 4 20 11 24
ROOT
ATOM      1  C   UNL     1      22.515   8.264  17.623  1.00  0.00     0.018 A 
ATOM      2  C   UNL     1      23.691   7.788  17.047  1.00  0.00     0.035 A 
ATOM      3  C   UNL     1      23.724   6.648  16.275  1.00  0.00     0.042 A 
ATOM      4  C   UNL     1      22.566   5.911  16.061  1.00  0.00     0.029 A 
ATOM      5  C   UNL     1      21.389   6.371  16.623  1.00  0.00     0.042 A 
ATOM      6  C   UNL     1      21.365   7.533  17.368  1.00  0.00     0.129 A 
ATOM      7  F   UNL     1      20.191   7.979  17.884  1.00  0.00    -0.207 F 
ENDROOT
BRANCH   1   8
ATOM      8  C   UNL     1      22.510   9.529  18.469  1.00  0.00     0.105 C 
ATOM      9  C   UNL     1      21.454  10.545  18.096  1.00  0.00     0.195 C 
ATOM     10  N   UNL     1      23.826  10.165  18.511  1.00  0.00    -0.240 NA
ATOM     11  S   UNL     1      21.730  11.163  16.455  1.00  0.00     0.239 S 
ATOM     12  C   UNL     1      24.243  10.935  17.554  1.00  0.00     0.205 C 
ATOM     13  O   UNL     1      21.171  12.502  16.417  1.00  0.00    -0.206 OA
ATOM     14  N   UNL     1      23.444  11.325  16.456  1.00  0.00    -0.243 N 
ATOM     15  O   UNL     1      21.482  10.161  15.465  1.00  0.00    -0.206 OA
ATOM     16  N   UNL     1      25.505  11.465  17.538  1.00  0.00    -0.369 N 
ATOM     17  C   UNL     1      22.268   9.145  19.931  1.00  0.00     0.044 C 
ATOM     18  C   UNL     1      23.969  12.098  15.313  1.00  0.00     0.167 C 
ATOM     19  H   UNL     1      26.137  11.251  18.262  1.00  0.00     0.159 HD
ATOM     20  H   UNL     1      25.780  12.060  16.804  1.00  0.00     0.159 HD
ENDBRANCH   1   8
BRANCH   3  21
ATOM     21  N   UNL     1      24.971   6.277  15.757  1.00  0.00    -0.321 N 
ATOM     22  C   UNL     1      25.522   6.604  14.531  1.00  0.00     0.274 C 
ATOM     23  O   UNL     1      24.934   7.182  13.627  1.00  0.00    -0.267 OA
ATOM     24  H   UNL     1      25.527   5.711  16.341  1.00  0.00     0.170 HD
BRANCH  22  25
ATOM     25  C   UNL     1      26.948   6.235  14.358  1.00  0.00     0.128 A 
ATOM     26  N   UNL     1      27.489   5.489  15.327  1.00  0.00    -0.248 NA
ATOM     27  C   UNL     1      27.638   6.653  13.234  1.00  0.00     0.037 A 
ATOM     28  C   UNL     1      28.781   5.146  15.195  1.00  0.00     0.151 A 
ATOM     29  C   UNL     1      28.966   6.278  13.123  1.00  0.00     0.043 A 
ATOM     30  C   UNL     1      29.552   5.518  14.117  1.00  0.00     0.141 A 
ATOM     31  F   UNL     1      30.834   5.123  14.049  1.00  0.00    -0.205 F 
ENDBRANCH  22  25
ENDBRANCH   3  21
TORSDOF 3
ENDMDL
MODEL 18
REMARK VINA RESULT:    -6.751      2.931      3.945
REMARK INTER + INTRA:          -8.097
REMARK INTER:                  -7.773
REMARK INTRA:                  -0.324
REMARK UNBOUND:                -0.162
REMARK SMILES CN1C(N)=N[C@](C)(c2cc(NC(=O)c3ccc(F)cn3)ccc2F)CS1(=O)=O
REMARK SMILES IDX 8 1 9 2 10 3 21 4 22 5 23 6 24 7 6 8 25 9 5 10 26 11 3 12
REMARK SMILES IDX 27 13 2 14 28 15 4 16 7 17 1 18 11 21 12 22 13 23 14 25
REMARK SMILES IDX 20 26 15 27 19 28 16 29 17 30 18 31
REMARK H PARENT 4 19 4 20 11 24
ROOT
ATOM      1  C   UNL     1      22.376  10.413  18.025  1.00  0.00     0.018 A 
ATOM      2  C   UNL     1      22.269  10.552  19.408  1.00  0.00     0.035 A 
ATOM      3  C   UNL     1      22.264   9.469  20.259  1.00  0.00     0.042 A 
ATOM      4  C   UNL     1      22.346   8.178  19.754  1.00  0.00     0.029 A 
ATOM      5  C   UNL     1      22.456   8.021  18.384  1.00  0.00     0.042 A 
ATOM      6  C   UNL     1      22.492   9.117  17.545  1.00  0.00     0.129 A 
ATOM      7  F   UNL     1      22.630   8.937  16.206  1.00  0.00    -0.207 F 
ENDROOT
BRANCH   1   8
ATOM      8  C   UNL     1      22.381  11.628  17.112  1.00  0.00     0.105 C 
ATOM      9  C   UNL     1      23.588  11.745  16.207  1.00  0.00     0.195 C 
ATOM     10  N   UNL     1      22.188  12.873  17.854  1.00  0.00    -0.240 NA
ATOM     11  S   UNL     1      25.069  11.957  17.163  1.00  0.00     0.239 S 
ATOM     12  C   UNL     1      23.169  13.462  18.465  1.00  0.00     0.205 C 
ATOM     13  O   UNL     1      26.000  12.693  16.326  1.00  0.00    -0.206 OA
ATOM     14  N   UNL     1      24.514  13.039  18.381  1.00  0.00    -0.243 N 
ATOM     15  O   UNL     1      25.404  10.770  17.886  1.00  0.00    -0.206 OA
ATOM     16  N   UNL     1      22.985  14.578  19.236  1.00  0.00    -0.369 N 
ATOM     17  C   UNL     1      21.147  11.573  16.207  1.00  0.00     0.044 C 
ATOM     18  C   UNL     1      25.599  13.642  19.180  1.00  0.00     0.167 C 
ATOM     19  H   UNL     1      22.081  14.950  19.355  1.00  0.00     0.159 HD
ATOM     20  H   UNL     1      23.756  15.009  19.671  1.00  0.00     0.159 HD
ENDBRANCH   1   8
BRANCH   3  21
ATOM     21  N   UNL     1      22.149   9.747  21.627  1.00  0.00    -0.321 N 
ATOM     22  C   UNL     1      23.036  10.428  22.442  1.00  0.00     0.274 C 
ATOM     23  O   UNL     1      24.155  10.796  22.111  1.00  0.00    -0.267 OA
ATOM     24  H   UNL     1      21.331   9.415  22.064  1.00  0.00     0.170 HD
BRANCH  22  25
ATOM     25  C   UNL     1      22.533  10.744  23.800  1.00  0.00     0.128 A 
ATOM     26  N   UNL     1      21.975   9.734  24.476  1.00  0.00    -0.248 NA
ATOM     27  C   UNL     1      22.665  12.026  24.305  1.00  0.00     0.037 A 
ATOM     28  C   UNL     1      21.508   9.998  25.708  1.00  0.00     0.151 A 
ATOM     29  C   UNL     1      22.180  12.265  25.579  1.00  0.00     0.043 A 
ATOM     30  C   UNL     1      21.588  11.241  26.293  1.00  0.00     0.141 A 
ATOM     31  F   UNL     1      21.111  11.423  27.536  1.00  0.00    -0.205 F 
ENDBRANCH  22  25
ENDBRANCH   3  21
TORSDOF 3
ENDMDL
MODEL 19
REMARK VINA RESULT:    -6.700      3.352      6.141
REMARK INTER + INTRA:          -8.037
REMARK INTER:                  -7.764
REMARK INTRA:                  -0.273
REMARK UNBOUND:                -0.162
REMARK SMILES CN1C(N)=N[C@](C)(c2cc(NC(=O)c3ccc(F)cn3)ccc2F)CS1(=O)=O
REMARK SMILES IDX 8 1 9 2 10 3 21 4 22 5 23 6 24 7 6 8 25 9 5 10 26 11 3 12
REMARK SMILES IDX 27 13 2 14 28 15 4 16 7 17 1 18 11 21 12 22 13 23 14 25
REMARK SMILES IDX 20 26 15 27 19 28 16 29 17 30 18 31
REMARK H PARENT 4 19 4 20 11 24
ROOT
ATOM      1  C   UNL     1      24.047  12.504  21.640  1.00  0.00     0.018 A 
ATOM      2  C   UNL     1      25.129  13.165  22.219  1.00  0.00     0.035 A 
ATOM      3  C   UNL     1      25.430  13.052  23.557  1.00  0.00     0.042 A 
ATOM      4  C   UNL     1      24.637  12.278  24.394  1.00  0.00     0.029 A 
ATOM      5  C   UNL     1      23.560  11.611  23.836  1.00  0.00     0.042 A 
ATOM      6  C   UNL     1      23.289  11.708  22.485  1.00  0.00     0.129 A 
ATOM      7  F   UNL     1      22.244  11.021  21.957  1.00  0.00    -0.207 F 
ENDROOT
BRANCH   1   8
ATOM      8  C   UNL     1      23.742  12.647  20.157  1.00  0.00     0.105 C 
ATOM      9  C   UNL     1      23.885  11.377  19.348  1.00  0.00     0.195 C 
ATOM     10  N   UNL     1      24.512  13.725  19.539  1.00  0.00    -0.240 NA
ATOM     11  S   UNL     1      25.569  10.814  19.357  1.00  0.00     0.239 S 
ATOM     12  C   UNL     1      25.741  13.554  19.160  1.00  0.00     0.205 C 
ATOM     13  O   UNL     1      25.765  10.074  18.123  1.00  0.00    -0.206 OA
ATOM     14  N   UNL     1      26.408  12.309  19.194  1.00  0.00    -0.243 N 
ATOM     15  O   UNL     1      25.960  10.342  20.648  1.00  0.00    -0.206 OA
ATOM     16  N   UNL     1      26.502  14.577  18.662  1.00  0.00    -0.369 N 
ATOM     17  C   UNL     1      22.295  13.122  19.993  1.00  0.00     0.044 C 
ATOM     18  C   UNL     1      27.842  12.154  18.878  1.00  0.00     0.167 C 
ATOM     19  H   UNL     1      26.125  15.485  18.599  1.00  0.00     0.159 HD
ATOM     20  H   UNL     1      27.426  14.407  18.367  1.00  0.00     0.159 HD
ENDBRANCH   1   8
BRANCH   3  21
ATOM     21  N   UNL     1      26.543  13.771  24.013  1.00  0.00    -0.321 N 
ATOM     22  C   UNL     1      27.870  13.380  24.024  1.00  0.00     0.274 C 
ATOM     23  O   UNL     1      28.277  12.259  23.745  1.00  0.00    -0.267 OA
ATOM     24  H   UNL     1      26.357  14.669  24.371  1.00  0.00     0.170 HD
BRANCH  22  25
ATOM     25  C   UNL     1      28.842  14.445  24.373  1.00  0.00     0.128 A 
ATOM     26  N   UNL     1      29.952  14.501  23.631  1.00  0.00    -0.248 NA
ATOM     27  C   UNL     1      28.566  15.317  25.412  1.00  0.00     0.037 A 
ATOM     28  C   UNL     1      30.849  15.455  23.931  1.00  0.00     0.151 A 
ATOM     29  C   UNL     1      29.506  16.293  25.693  1.00  0.00     0.043 A 
ATOM     30  C   UNL     1      30.668  16.365  24.949  1.00  0.00     0.141 A 
ATOM     31  F   UNL     1      31.605  17.300  25.179  1.00  0.00    -0.205 F 
ENDBRANCH  22  25
ENDBRANCH   3  21
TORSDOF 3
ENDMDL
MODEL 20
REMARK VINA RESULT:    -6.695      5.459      7.498
REMARK INTER + INTRA:          -8.031
REMARK INTER:                  -7.616
REMARK INTRA:                  -0.415
REMARK UNBOUND:                -0.162
REMARK SMILES CN1C(N)=N[C@](C)(c2cc(NC(=O)c3ccc(F)cn3)ccc2F)CS1(=O)=O
REMARK SMILES IDX 8 1 9 2 10 3 21 4 22 5 23 6 24 7 6 8 25 9 5 10 26 11 3 12
REMARK SMILES IDX 27 13 2 14 28 15 4 16 7 17 1 18 11 21 12 22 13 23 14 25
REMARK SMILES IDX 20 26 15 27 19 28 16 29 17 30 18 31
REMARK H PARENT 4 19 4 20 11 24
ROOT
ATOM      1  C   UNL     1      21.643  11.470  17.051  1.00  0.00     0.018 A 
ATOM      2  C   UNL     1      21.611  10.119  17.396  1.00  0.00     0.035 A 
ATOM      3  C   UNL     1      21.354   9.130  16.475  1.00  0.00     0.042 A 
ATOM      4  C   UNL     1      21.090   9.454  15.150  1.00  0.00     0.029 A 
ATOM      5  C   UNL     1      21.120  10.789  14.788  1.00  0.00     0.042 A 
ATOM      6  C   UNL     1      21.412  11.769  15.717  1.00  0.00     0.129 A 
ATOM      7  F   UNL     1      21.464  13.069  15.331  1.00  0.00    -0.207 F 
ENDROOT
BRANCH   1   8
ATOM      8  C   UNL     1      21.933  12.540  18.092  1.00  0.00     0.105 C 
ATOM      9  C   UNL     1      23.110  13.437  17.778  1.00  0.00     0.195 C 
ATOM     10  N   UNL     1      22.076  11.976  19.433  1.00  0.00    -0.240 NA
ATOM     11  S   UNL     1      24.618  12.501  17.735  1.00  0.00     0.239 S 
ATOM     12  C   UNL     1      23.187  11.438  19.832  1.00  0.00     0.205 C 
ATOM     13  O   UNL     1      25.684  13.419  18.092  1.00  0.00    -0.206 OA
ATOM     14  N   UNL     1      24.380  11.448  19.075  1.00  0.00    -0.243 N 
ATOM     15  O   UNL     1      24.659  11.620  16.610  1.00  0.00    -0.206 OA
ATOM     16  N   UNL     1      23.308  10.828  21.052  1.00  0.00    -0.369 N 
ATOM     17  C   UNL     1      20.704  13.443  18.229  1.00  0.00     0.044 C 
ATOM     18  C   UNL     1      25.600  10.725  19.487  1.00  0.00     0.167 C 
ATOM     19  H   UNL     1      22.530  10.772  21.652  1.00  0.00     0.159 HD
ATOM     20  H   UNL     1      24.173  10.447  21.328  1.00  0.00     0.159 HD
ENDBRANCH   1   8
BRANCH   3  21
ATOM     21  N   UNL     1      21.348   7.813  16.953  1.00  0.00    -0.321 N 
ATOM     22  C   UNL     1      22.429   6.979  17.178  1.00  0.00     0.274 C 
ATOM     23  O   UNL     1      23.586   7.225  16.865  1.00  0.00    -0.267 OA
ATOM     24  H   UNL     1      20.463   7.433  17.155  1.00  0.00     0.170 HD
BRANCH  22  25
ATOM     25  C   UNL     1      22.116   5.715  17.888  1.00  0.00     0.128 A 
ATOM     26  N   UNL     1      21.820   4.661  17.120  1.00  0.00    -0.248 NA
ATOM     27  C   UNL     1      22.150   5.672  19.271  1.00  0.00     0.037 A 
ATOM     28  C   UNL     1      21.529   3.506  17.740  1.00  0.00     0.151 A 
ATOM     29  C   UNL     1      21.851   4.466  19.881  1.00  0.00     0.043 A 
ATOM     30  C   UNL     1      21.531   3.366  19.110  1.00  0.00     0.141 A 
ATOM     31  F   UNL     1      21.243   2.173  19.657  1.00  0.00    -0.205 F 
ENDBRANCH  22  25
ENDBRANCH   3  21
TORSDOF 3
ENDMDL
