MODEL 1
REMARK VINA RESULT:    -9.857      0.000      0.000
REMARK INTER + INTRA:         -11.331
REMARK INTER:                 -11.010
REMARK INTRA:                  -0.321
REMARK UNBOUND:                -0.321
REMARK SMILES O=C(N[C@H]1CN2CCC1CC2)c1cc2cccc(Cl)c2s1
REMARK SMILES IDX 12 1 13 2 14 3 20 4 18 5 17 6 16 7 15 8 21 9 19 10 2 11 3 12
REMARK SMILES IDX 1 13 4 15 9 16 5 17 8 18 10 19 6 20 7 21 11 22
REMARK H PARENT 3 14
ROOT
ATOM      1  C   UNL     1     143.909 138.496  90.709  1.00  0.00     0.093 A 
ATOM      2  C   UNL     1     143.416 137.267  90.984  1.00  0.00     0.034 A 
ATOM      3  C   UNL     1     144.315 136.214  91.362  1.00  0.00    -0.005 A 
ATOM      4  C   UNL     1     145.691 136.630  91.402  1.00  0.00     0.054 A 
ATOM      5  C   UNL     1     146.666 135.726  91.751  1.00  0.00     0.058 A 
ATOM      6  C   UNL     1     146.315 134.409  92.063  1.00  0.00     0.022 A 
ATOM      7  C   UNL     1     144.969 134.006  92.021  1.00  0.00     0.002 A 
ATOM      8  C   UNL     1     143.978 134.922  91.668  1.00  0.00     0.010 A 
ATOM      9  S   UNL     1     145.632 138.384  90.928  1.00  0.00    -0.128 S 
ATOM     10  Cl  UNL     1     148.375 136.231  91.803  1.00  0.00    -0.083 Cl
ENDROOT
BRANCH   1  11
ATOM     11  C   UNL     1     143.086 139.720  90.291  1.00  0.00     0.261 C 
ATOM     12  N   UNL     1     141.641 139.642  90.206  1.00  0.00    -0.347 N 
ATOM     13  O   UNL     1     143.637 140.736  90.033  1.00  0.00    -0.268 OA
ATOM     14  H   UNL     1     141.176 138.800  90.416  1.00  0.00     0.164 HD
BRANCH  12  15
ATOM     15  C   UNL     1     140.869 140.839  89.799  1.00  0.00     0.099 C 
ATOM     16  C   UNL     1     139.621 140.909  90.553  1.00  0.00     0.015 C 
ATOM     17  C   UNL     1     140.522 140.756  88.300  1.00  0.00     0.109 C 
ATOM     18  C   UNL     1     138.878 142.053  90.103  1.00  0.00     0.021 C 
ATOM     19  C   UNL     1     138.840 139.709  90.262  1.00  0.00     0.021 C 
ATOM     20  N   UNL     1     139.141 140.802  88.097  1.00  0.00    -0.301 NA
ATOM     21  C   UNL     1     138.616 141.960  88.629  1.00  0.00     0.085 C 
ATOM     22  C   UNL     1     138.531 139.684  88.717  1.00  0.00     0.085 C 
ENDBRANCH  12  15
ENDBRANCH   1  11
TORSDOF 2
ENDMDL
MODEL 2
REMARK VINA RESULT:    -9.111      1.325      1.876
REMARK INTER + INTRA:         -10.497
REMARK INTER:                 -10.194
REMARK INTRA:                  -0.304
REMARK UNBOUND:                -0.321
REMARK SMILES O=C(N[C@H]1CN2CCC1CC2)c1cc2cccc(Cl)c2s1
REMARK SMILES IDX 12 1 13 2 14 3 20 4 18 5 17 6 16 7 15 8 21 9 19 10 2 11 3 12
REMARK SMILES IDX 1 13 4 15 9 16 5 17 8 18 10 19 6 20 7 21 11 22
REMARK H PARENT 3 14
ROOT
ATOM      1  C   UNL     1     144.232 138.661  90.674  1.00  0.00     0.093 A 
ATOM      2  C   UNL     1     145.569 138.718  90.876  1.00  0.00     0.034 A 
ATOM      3  C   UNL     1     146.267 137.544  91.314  1.00  0.00    -0.005 A 
ATOM      4  C   UNL     1     145.408 136.403  91.486  1.00  0.00     0.054 A 
ATOM      5  C   UNL     1     145.940 135.206  91.901  1.00  0.00     0.058 A 
ATOM      6  C   UNL     1     147.311 135.104  92.154  1.00  0.00     0.022 A 
ATOM      7  C   UNL     1     148.147 136.220  91.986  1.00  0.00     0.002 A 
ATOM      8  C   UNL     1     147.610 137.437  91.564  1.00  0.00     0.010 A 
ATOM      9  S   UNL     1     143.759 137.027  91.045  1.00  0.00    -0.128 S 
ATOM     10  Cl  UNL     1     144.883 133.786  92.119  1.00  0.00    -0.083 Cl
ENDROOT
BRANCH   1  11
ATOM     11  C   UNL     1     143.345 139.822  90.211  1.00  0.00     0.261 C 
ATOM     12  N   UNL     1     141.912 139.647  90.077  1.00  0.00    -0.347 N 
ATOM     13  O   UNL     1     143.836 140.870  89.958  1.00  0.00    -0.268 OA
ATOM     14  H   UNL     1     141.496 138.779  90.283  1.00  0.00     0.164 HD
BRANCH  12  15
ATOM     15  C   UNL     1     141.078 140.785  89.628  1.00  0.00     0.099 C 
ATOM     16  C   UNL     1     139.869 140.872  90.442  1.00  0.00     0.015 C 
ATOM     17  C   UNL     1     140.655 140.579  88.159  1.00  0.00     0.109 C 
ATOM     18  C   UNL     1     139.064 141.955  89.951  1.00  0.00     0.021 C 
ATOM     19  C   UNL     1     139.118 139.629  90.283  1.00  0.00     0.021 C 
ATOM     20  N   UNL     1     139.264 140.566  88.030  1.00  0.00    -0.301 NA
ATOM     21  C   UNL     1     138.727 141.743  88.505  1.00  0.00     0.085 C 
ATOM     22  C   UNL     1     138.728 139.479  88.764  1.00  0.00     0.085 C 
ENDBRANCH  12  15
ENDBRANCH   1  11
TORSDOF 2
ENDMDL
MODEL 3
REMARK VINA RESULT:    -7.918      1.773      2.266
REMARK INTER + INTRA:          -9.165
REMARK INTER:                  -8.852
REMARK INTRA:                  -0.313
REMARK UNBOUND:                -0.321
REMARK SMILES O=C(N[C@H]1CN2CCC1CC2)c1cc2cccc(Cl)c2s1
REMARK SMILES IDX 12 1 13 2 14 3 20 4 18 5 17 6 16 7 15 8 21 9 19 10 2 11 3 12
REMARK SMILES IDX 1 13 4 15 9 16 5 17 8 18 10 19 6 20 7 21 11 22
REMARK H PARENT 3 14
ROOT
ATOM      1  C   UNL     1     142.404 136.996  90.829  1.00  0.00     0.093 A 
ATOM      2  C   UNL     1     142.775 135.727  91.116  1.00  0.00     0.034 A 
ATOM      3  C   UNL     1     144.137 135.454  91.474  1.00  0.00    -0.005 A 
ATOM      4  C   UNL     1     144.968 136.628  91.482  1.00  0.00     0.054 A 
ATOM      5  C   UNL     1     146.299 136.518  91.808  1.00  0.00     0.058 A 
ATOM      6  C   UNL     1     146.836 135.268  92.129  1.00  0.00     0.022 A 
ATOM      7  C   UNL     1     146.021 134.123  92.119  1.00  0.00     0.002 A 
ATOM      8  C   UNL     1     144.670 134.232  91.789  1.00  0.00     0.010 A 
ATOM      9  S   UNL     1     143.836 137.969  91.008  1.00  0.00    -0.128 S 
ATOM     10  Cl  UNL     1     147.338 137.967  91.820  1.00  0.00    -0.083 Cl
ENDROOT
BRANCH   1  11
ATOM     11  C   UNL     1     140.995 137.450  90.430  1.00  0.00     0.261 C 
ATOM     12  N   UNL     1     140.680 138.860  90.314  1.00  0.00    -0.347 N 
ATOM     13  O   UNL     1     140.157 136.640  90.218  1.00  0.00    -0.268 OA
ATOM     14  H   UNL     1     141.370 139.539  90.491  1.00  0.00     0.164 HD
BRANCH  12  15
ATOM     15  C   UNL     1     139.311 139.271  89.927  1.00  0.00     0.099 C 
ATOM     16  C   UNL     1     139.289 139.680  88.525  1.00  0.00     0.015 C 
ATOM     17  C   UNL     1     138.860 140.470  90.785  1.00  0.00     0.109 C 
ATOM     18  C   UNL     1     137.960 140.115  88.197  1.00  0.00     0.021 C 
ATOM     19  C   UNL     1     140.198 140.812  88.362  1.00  0.00     0.021 C 
ATOM     20  N   UNL     1     138.537 141.571  89.987  1.00  0.00    -0.301 NA
ATOM     21  C   UNL     1     137.540 141.241  89.095  1.00  0.00     0.085 C 
ATOM     22  C   UNL     1     139.684 141.993  89.271  1.00  0.00     0.085 C 
ENDBRANCH  12  15
ENDBRANCH   1  11
TORSDOF 2
ENDMDL
MODEL 4
REMARK VINA RESULT:    -7.643      3.924      7.998
REMARK INTER + INTRA:          -8.858
REMARK INTER:                  -8.538
REMARK INTRA:                  -0.320
REMARK UNBOUND:                -0.321
REMARK SMILES O=C(N[C@H]1CN2CCC1CC2)c1cc2cccc(Cl)c2s1
REMARK SMILES IDX 12 1 13 2 14 3 20 4 18 5 17 6 16 7 15 8 21 9 19 10 2 11 3 12
REMARK SMILES IDX 1 13 4 15 9 16 5 17 8 18 10 19 6 20 7 21 11 22
REMARK H PARENT 3 14
ROOT
ATOM      1  C   UNL     1     144.139 138.577  91.377  1.00  0.00     0.093 A 
ATOM      2  C   UNL     1     143.214 137.600  91.232  1.00  0.00     0.034 A 
ATOM      3  C   UNL     1     141.928 137.921  90.681  1.00  0.00    -0.005 A 
ATOM      4  C   UNL     1     141.789 139.310  90.336  1.00  0.00     0.054 A 
ATOM      5  C   UNL     1     140.610 139.763  89.796  1.00  0.00     0.058 A 
ATOM      6  C   UNL     1     139.553 138.872  89.584  1.00  0.00     0.022 A 
ATOM      7  C   UNL     1     139.692 137.515  89.923  1.00  0.00     0.002 A 
ATOM      8  C   UNL     1     140.889 137.053  90.472  1.00  0.00     0.010 A 
ATOM      9  S   UNL     1     143.393 140.036  90.789  1.00  0.00    -0.128 S 
ATOM     10  Cl  UNL     1     140.426 141.484  89.366  1.00  0.00    -0.083 Cl
ENDROOT
BRANCH   1  11
ATOM     11  C   UNL     1     145.550 138.398  91.947  1.00  0.00     0.261 C 
ATOM     12  N   UNL     1     146.565 137.687  91.195  1.00  0.00    -0.347 N 
ATOM     13  O   UNL     1     145.811 138.842  93.014  1.00  0.00    -0.268 OA
ATOM     14  H   UNL     1     146.356 137.313  90.309  1.00  0.00     0.164 HD
BRANCH  12  15
ATOM     15  C   UNL     1     147.921 137.529  91.770  1.00  0.00     0.099 C 
ATOM     16  C   UNL     1     148.921 138.047  90.842  1.00  0.00     0.015 C 
ATOM     17  C   UNL     1     148.217 136.036  92.013  1.00  0.00     0.109 C 
ATOM     18  C   UNL     1     150.224 137.837  91.409  1.00  0.00     0.021 C 
ATOM     19  C   UNL     1     148.832 137.287  89.598  1.00  0.00     0.021 C 
ATOM     20  N   UNL     1     149.354 135.625  91.312  1.00  0.00    -0.301 NA
ATOM     21  C   UNL     1     150.445 136.379  91.684  1.00  0.00     0.085 C 
ATOM     22  C   UNL     1     149.135 135.774  89.920  1.00  0.00     0.085 C 
ENDBRANCH  12  15
ENDBRANCH   1  11
TORSDOF 2
ENDMDL
MODEL 5
REMARK VINA RESULT:    -7.524      3.921      8.154
REMARK INTER + INTRA:          -8.725
REMARK INTER:                  -8.424
REMARK INTRA:                  -0.301
REMARK UNBOUND:                -0.321
REMARK SMILES O=C(N[C@H]1CN2CCC1CC2)c1cc2cccc(Cl)c2s1
REMARK SMILES IDX 12 1 13 2 14 3 20 4 18 5 17 6 16 7 15 8 21 9 19 10 2 11 3 12
REMARK SMILES IDX 1 13 4 15 9 16 5 17 8 18 10 19 6 20 7 21 11 22
REMARK H PARENT 3 14
ROOT
ATOM      1  C   UNL     1     144.439 138.318  91.448  1.00  0.00     0.093 A 
ATOM      2  C   UNL     1     143.745 139.422  91.087  1.00  0.00     0.034 A 
ATOM      3  C   UNL     1     142.376 139.291  90.677  1.00  0.00    -0.005 A 
ATOM      4  C   UNL     1     141.900 137.934  90.710  1.00  0.00     0.054 A 
ATOM      5  C   UNL     1     140.605 137.658  90.343  1.00  0.00     0.058 A 
ATOM      6  C   UNL     1     139.758 138.695  89.942  1.00  0.00     0.022 A 
ATOM      7  C   UNL     1     140.226 140.020  89.911  1.00  0.00     0.002 A 
ATOM      8  C   UNL     1     141.541 140.303  90.282  1.00  0.00     0.010 A 
ATOM      9  S   UNL     1     143.338 136.981  91.283  1.00  0.00    -0.128 S 
ATOM     10  Cl  UNL     1     140.005 135.979  90.379  1.00  0.00    -0.083 Cl
ENDROOT
BRANCH   1  11
ATOM     11  C   UNL     1     145.902 138.289  91.906  1.00  0.00     0.261 C 
ATOM     12  N   UNL     1     146.937 137.771  91.034  1.00  0.00    -0.347 N 
ATOM     13  O   UNL     1     146.186 138.691  92.983  1.00  0.00    -0.268 OA
ATOM     14  H   UNL     1     146.709 137.433  90.138  1.00  0.00     0.164 HD
BRANCH  12  15
ATOM     15  C   UNL     1     148.342 137.754  91.501  1.00  0.00     0.099 C 
ATOM     16  C   UNL     1     149.242 138.055  90.391  1.00  0.00     0.015 C 
ATOM     17  C   UNL     1     148.699 136.356  92.044  1.00  0.00     0.109 C 
ATOM     18  C   UNL     1     150.595 137.985  90.868  1.00  0.00     0.021 C 
ATOM     19  C   UNL     1     149.062 137.033  89.364  1.00  0.00     0.021 C 
ATOM     20  N   UNL     1     149.779 135.804  91.351  1.00  0.00    -0.301 NA
ATOM     21  C   UNL     1     150.879 136.629  91.442  1.00  0.00     0.085 C 
ATOM     22  C   UNL     1     149.433 135.634  89.988  1.00  0.00     0.085 C 
ENDBRANCH  12  15
ENDBRANCH   1  11
TORSDOF 2
ENDMDL
MODEL 6
REMARK VINA RESULT:    -7.387      3.439      7.807
REMARK INTER + INTRA:          -8.572
REMARK INTER:                  -8.256
REMARK INTRA:                  -0.316
REMARK UNBOUND:                -0.321
REMARK SMILES O=C(N[C@H]1CN2CCC1CC2)c1cc2cccc(Cl)c2s1
REMARK SMILES IDX 12 1 13 2 14 3 20 4 18 5 17 6 16 7 15 8 21 9 19 10 2 11 3 12
REMARK SMILES IDX 1 13 4 15 9 16 5 17 8 18 10 19 6 20 7 21 11 22
REMARK H PARENT 3 14
ROOT
ATOM      1  C   UNL     1     142.830 139.928  90.266  1.00  0.00     0.093 A 
ATOM      2  C   UNL     1     141.742 140.277  90.991  1.00  0.00     0.034 A 
ATOM      3  C   UNL     1     140.469 140.394  90.340  1.00  0.00    -0.005 A 
ATOM      4  C   UNL     1     140.522 140.106  88.932  1.00  0.00     0.054 A 
ATOM      5  C   UNL     1     139.376 140.177  88.177  1.00  0.00     0.058 A 
ATOM      6  C   UNL     1     138.165 140.528  88.783  1.00  0.00     0.022 A 
ATOM      7  C   UNL     1     138.117 140.810  90.159  1.00  0.00     0.002 A 
ATOM      8  C   UNL     1     139.279 140.738  90.926  1.00  0.00     0.010 A 
ATOM      9  S   UNL     1     142.272 139.713  88.632  1.00  0.00    -0.128 S 
ATOM     10  Cl  UNL     1     139.431 139.823  86.431  1.00  0.00    -0.083 Cl
ENDROOT
BRANCH   1  11
ATOM     11  C   UNL     1     144.254 139.763  90.810  1.00  0.00     0.261 C 
ATOM     12  N   UNL     1     144.859 138.449  90.907  1.00  0.00    -0.347 N 
ATOM     13  O   UNL     1     144.863 140.718  91.156  1.00  0.00    -0.268 OA
ATOM     14  H   UNL     1     144.359 137.650  90.623  1.00  0.00     0.164 HD
BRANCH  12  15
ATOM     15  C   UNL     1     146.236 138.318  91.436  1.00  0.00     0.099 C 
ATOM     16  C   UNL     1     147.167 138.046  90.344  1.00  0.00     0.015 C 
ATOM     17  C   UNL     1     146.307 137.145  92.433  1.00  0.00     0.109 C 
ATOM     18  C   UNL     1     148.482 137.880  90.896  1.00  0.00     0.021 C 
ATOM     19  C   UNL     1     146.773 136.793  89.706  1.00  0.00     0.021 C 
ATOM     20  N   UNL     1     147.245 136.192  92.028  1.00  0.00    -0.301 NA
ATOM     21  C   UNL     1     148.491 136.769  91.904  1.00  0.00     0.085 C 
ATOM     22  C   UNL     1     146.859 135.643  90.781  1.00  0.00     0.085 C 
ENDBRANCH  12  15
ENDBRANCH   1  11
TORSDOF 2
ENDMDL
MODEL 7
REMARK VINA RESULT:    -6.939      4.334      8.584
REMARK INTER + INTRA:          -8.071
REMARK INTER:                  -7.756
REMARK INTRA:                  -0.316
REMARK UNBOUND:                -0.321
REMARK SMILES O=C(N[C@H]1CN2CCC1CC2)c1cc2cccc(Cl)c2s1
REMARK SMILES IDX 12 1 13 2 14 3 20 4 18 5 17 6 16 7 15 8 21 9 19 10 2 11 3 12
REMARK SMILES IDX 1 13 4 15 9 16 5 17 8 18 10 19 6 20 7 21 11 22
REMARK H PARENT 3 14
ROOT
ATOM      1  C   UNL     1     145.073 137.071  91.266  1.00  0.00     0.093 A 
ATOM      2  C   UNL     1     144.845 138.382  91.018  1.00  0.00     0.034 A 
ATOM      3  C   UNL     1     143.516 138.819  90.699  1.00  0.00    -0.005 A 
ATOM      4  C   UNL     1     142.554 137.749  90.687  1.00  0.00     0.054 A 
ATOM      5  C   UNL     1     141.238 138.020  90.397  1.00  0.00     0.058 A 
ATOM      6  C   UNL     1     140.842 139.331  90.117  1.00  0.00     0.022 A 
ATOM      7  C   UNL     1     141.785 140.373  90.128  1.00  0.00     0.002 A 
ATOM      8  C   UNL     1     143.121 140.101  90.422  1.00  0.00     0.010 A 
ATOM      9  S   UNL     1     143.534 136.275  91.102  1.00  0.00    -0.128 S 
ATOM     10  Cl  UNL     1     140.038 136.701  90.378  1.00  0.00    -0.083 Cl
ENDROOT
BRANCH   1  11
ATOM     11  C   UNL     1     146.429 136.448  91.617  1.00  0.00     0.261 C 
ATOM     12  N   UNL     1     147.663 137.082  91.195  1.00  0.00    -0.347 N 
ATOM     13  O   UNL     1     146.466 135.440  92.236  1.00  0.00    -0.268 OA
ATOM     14  H   UNL     1     147.640 137.919  90.678  1.00  0.00     0.164 HD
BRANCH  12  15
ATOM     15  C   UNL     1     148.959 136.458  91.548  1.00  0.00     0.099 C 
ATOM     16  C   UNL     1     149.944 137.491  91.853  1.00  0.00     0.015 C 
ATOM     17  C   UNL     1     149.483 135.628  90.360  1.00  0.00     0.109 C 
ATOM     18  C   UNL     1     151.198 136.855  92.145  1.00  0.00     0.021 C 
ATOM     19  C   UNL     1     150.116 138.327  90.667  1.00  0.00     0.021 C 
ATOM     20  N   UNL     1     150.740 136.076  89.945  1.00  0.00    -0.301 NA
ATOM     21  C   UNL     1     151.640 136.012  90.987  1.00  0.00     0.085 C 
ATOM     22  C   UNL     1     150.643 137.416  89.494  1.00  0.00     0.085 C 
ENDBRANCH  12  15
ENDBRANCH   1  11
TORSDOF 2
ENDMDL
