MODEL 1
REMARK VINA RESULT:   -13.412      0.000      0.000
REMARK INTER + INTRA:         -16.328
REMARK INTER:                 -16.157
REMARK INTRA:                  -0.171
REMARK UNBOUND:                -0.171
REMARK SMILES CC1(C)CCC(C)(C)c2cc(NC(=O)c3ccc(C(=O)O)cc3)ccc21
REMARK SMILES IDX 15 1 16 2 23 3 17 4 22 5 18 6 13 7 14 8 12 9 11 11 10 12
REMARK SMILES IDX 24 13 9 14 25 15 6 16 26 17 5 18 2 19 4 20 7 21 8 22 1 23
REMARK SMILES IDX 3 24 19 25 20 26 21 27
REMARK H PARENT 12 10 21 28
ROOT
ATOM      1  C   UNL     1      40.694  23.136 101.990  1.00  0.00     0.040 A 
ATOM      2  C   UNL     1      39.797  22.540 102.852  1.00  0.00     0.015 A 
ATOM      3  C   UNL     1      40.610  24.469 101.644  1.00  0.00     0.015 A 
ATOM      4  C   UNL     1      38.769  23.312 103.393  1.00  0.00     0.016 A 
ATOM      5  C   UNL     1      39.582  25.241 102.186  1.00  0.00     0.016 A 
ATOM      6  C   UNL     1      38.661  24.662 103.059  1.00  0.00     0.059 A 
ENDROOT
BRANCH   1   7
ATOM      7  C   UNL     1      41.789  22.312 101.414  1.00  0.00     0.255 C 
ATOM      8  O   UNL     1      41.674  21.093 101.467  1.00  0.00    -0.269 OA
ATOM      9  N   UNL     1      42.844  23.034 100.840  1.00  0.00    -0.322 N 
ATOM     10  H   UNL     1      42.827  24.047 100.908  1.00  0.00     0.170 HD
BRANCH   9  11
ATOM     11  C   UNL     1      43.983  22.533 100.208  1.00  0.00     0.041 A 
ATOM     12  C   UNL     1      43.919  21.339  99.494  1.00  0.00     0.030 A 
ATOM     13  C   UNL     1      45.183  23.219 100.292  1.00  0.00     0.026 A 
ATOM     14  C   UNL     1      45.054  20.797  98.847  1.00  0.00    -0.037 A 
ATOM     15  C   UNL     1      46.312  22.718  99.648  1.00  0.00     0.007 A 
ATOM     16  C   UNL     1      44.914  19.474  98.082  1.00  0.00    -0.010 C 
ATOM     17  C   UNL     1      46.271  21.519  98.899  1.00  0.00    -0.038 A 
ATOM     18  C   UNL     1      46.293  18.870  97.734  1.00  0.00     0.012 C 
ATOM     19  C   UNL     1      47.549  21.026  98.210  1.00  0.00    -0.010 C 
ATOM     20  C   UNL     1      47.249  19.914  97.182  1.00  0.00     0.012 C 
ATOM     21  C   UNL     1      44.113  19.734  96.786  1.00  0.00     0.016 C 
ATOM     22  C   UNL     1      44.165  18.404  98.911  1.00  0.00     0.016 C 
ATOM     23  C   UNL     1      48.520  20.497  99.288  1.00  0.00     0.016 C 
ATOM     24  C   UNL     1      48.259  22.160  97.431  1.00  0.00     0.016 C 
ENDBRANCH   9  11
ENDBRANCH   1   7
BRANCH   6  25
ATOM     25  C   UNL     1      37.590  25.469 103.624  1.00  0.00     0.335 C 
ATOM     26  O   UNL     1      36.508  25.035 104.034  1.00  0.00    -0.246 OA
BRANCH  25  27
ATOM     27  O   UNL     1      37.900  26.793 103.662  1.00  0.00    -0.478 OA
ATOM     28  H   UNL     1      37.861  27.203 102.770  1.00  0.00     0.297 HD
ENDBRANCH  25  27
ENDBRANCH   6  25
TORSDOF 4
ENDMDL
MODEL 2
REMARK VINA RESULT:   -12.533      1.032      1.434
REMARK INTER + INTRA:         -15.269
REMARK INTER:                 -14.830
REMARK INTRA:                  -0.438
REMARK UNBOUND:                -0.171
REMARK SMILES CC1(C)CCC(C)(C)c2cc(NC(=O)c3ccc(C(=O)O)cc3)ccc21
REMARK SMILES IDX 15 1 16 2 23 3 17 4 22 5 18 6 13 7 14 8 12 9 11 11 10 12
REMARK SMILES IDX 24 13 9 14 25 15 6 16 26 17 5 18 2 19 4 20 7 21 8 22 1 23
REMARK SMILES IDX 3 24 19 25 20 26 21 27
REMARK H PARENT 12 10 21 28
ROOT
ATOM      1  C   UNL     1      40.552  23.787 101.846  1.00  0.00     0.040 A 
ATOM      2  C   UNL     1      39.911  25.003 101.956  1.00  0.00     0.015 A 
ATOM      3  C   UNL     1      40.138  22.670 102.542  1.00  0.00     0.015 A 
ATOM      4  C   UNL     1      38.806  25.108 102.802  1.00  0.00     0.016 A 
ATOM      5  C   UNL     1      39.032  22.775 103.387  1.00  0.00     0.016 A 
ATOM      6  C   UNL     1      38.367  23.994 103.517  1.00  0.00     0.059 A 
ENDROOT
BRANCH   1   7
ATOM      7  C   UNL     1      41.729  23.675 100.946  1.00  0.00     0.255 C 
ATOM      8  O   UNL     1      41.929  24.588 100.152  1.00  0.00    -0.269 OA
ATOM      9  N   UNL     1      42.513  22.528 101.122  1.00  0.00    -0.322 N 
ATOM     10  H   UNL     1      42.200  21.830 101.791  1.00  0.00     0.170 HD
BRANCH   9  11
ATOM     11  C   UNL     1      43.679  22.171 100.443  1.00  0.00     0.041 A 
ATOM     12  C   UNL     1      43.708  21.020  99.659  1.00  0.00     0.030 A 
ATOM     13  C   UNL     1      44.813  22.959 100.550  1.00  0.00     0.026 A 
ATOM     14  C   UNL     1      44.873  20.624  98.963  1.00  0.00    -0.037 A 
ATOM     15  C   UNL     1      45.969  22.601  99.858  1.00  0.00     0.007 A 
ATOM     16  C   UNL     1      44.838  19.340  98.122  1.00  0.00    -0.010 C 
ATOM     17  C   UNL     1      46.021  21.450  99.039  1.00  0.00    -0.038 A 
ATOM     18  C   UNL     1      46.258  18.887  97.717  1.00  0.00     0.012 C 
ATOM     19  C   UNL     1      47.324  21.118  98.301  1.00  0.00    -0.010 C 
ATOM     20  C   UNL     1      47.104  20.044  97.213  1.00  0.00     0.012 C 
ATOM     21  C   UNL     1      43.989  19.601  96.857  1.00  0.00     0.016 C 
ATOM     22  C   UNL     1      44.207  18.160  98.897  1.00  0.00     0.016 C 
ATOM     23  C   UNL     1      48.362  20.617  99.329  1.00  0.00     0.016 C 
ATOM     24  C   UNL     1      47.911  22.355  97.581  1.00  0.00     0.016 C 
ENDBRANCH   9  11
ENDBRANCH   1   7
BRANCH   6  25
ATOM     25  C   UNL     1      37.215  24.103 104.397  1.00  0.00     0.335 C 
ATOM     26  O   UNL     1      36.834  23.233 105.188  1.00  0.00    -0.246 OA
BRANCH  25  27
ATOM     27  O   UNL     1      36.570  25.294 104.267  1.00  0.00    -0.478 OA
ATOM     28  H   UNL     1      37.102  25.943 103.758  1.00  0.00     0.297 HD
ENDBRANCH  25  27
ENDBRANCH   6  25
TORSDOF 4
ENDMDL
MODEL 3
REMARK VINA RESULT:   -12.485      1.260      2.766
REMARK INTER + INTRA:         -15.211
REMARK INTER:                 -15.109
REMARK INTRA:                  -0.102
REMARK UNBOUND:                -0.171
REMARK SMILES CC1(C)CCC(C)(C)c2cc(NC(=O)c3ccc(C(=O)O)cc3)ccc21
REMARK SMILES IDX 15 1 16 2 23 3 17 4 22 5 18 6 13 7 14 8 12 9 11 11 10 12
REMARK SMILES IDX 24 13 9 14 25 15 6 16 26 17 5 18 2 19 4 20 7 21 8 22 1 23
REMARK SMILES IDX 3 24 19 25 20 26 21 27
REMARK H PARENT 12 10 21 28
ROOT
ATOM      1  C   UNL     1      40.911  23.464 101.886  1.00  0.00     0.040 A 
ATOM      2  C   UNL     1      40.103  22.760 102.754  1.00  0.00     0.015 A 
ATOM      3  C   UNL     1      40.654  24.773 101.536  1.00  0.00     0.015 A 
ATOM      4  C   UNL     1      38.986  23.395 103.298  1.00  0.00     0.016 A 
ATOM      5  C   UNL     1      39.537  25.407 102.080  1.00  0.00     0.016 A 
ATOM      6  C   UNL     1      38.703  24.718 102.961  1.00  0.00     0.059 A 
ENDROOT
BRANCH   1   7
ATOM      7  C   UNL     1      42.101  22.787 101.307  1.00  0.00     0.255 C 
ATOM      8  O   UNL     1      43.191  23.333 101.443  1.00  0.00    -0.269 OA
ATOM      9  N   UNL     1      41.847  21.562 100.676  1.00  0.00    -0.322 N 
ATOM     10  H   UNL     1      40.883  21.252 100.598  1.00  0.00     0.170 HD
BRANCH   9  11
ATOM     11  C   UNL     1      42.764  20.701 100.070  1.00  0.00     0.041 A 
ATOM     12  C   UNL     1      43.943  21.206  99.526  1.00  0.00     0.030 A 
ATOM     13  C   UNL     1      42.504  19.343 100.004  1.00  0.00     0.026 A 
ATOM     14  C   UNL     1      44.892  20.366  98.899  1.00  0.00    -0.037 A 
ATOM     15  C   UNL     1      43.432  18.491  99.409  1.00  0.00     0.007 A 
ATOM     16  C   UNL     1      46.168  20.989  98.315  1.00  0.00    -0.010 C 
ATOM     17  C   UNL     1      44.645  18.972  98.867  1.00  0.00    -0.038 A 
ATOM     18  C   UNL     1      46.911  20.001  97.390  1.00  0.00     0.012 C 
ATOM     19  C   UNL     1      45.625  17.978  98.231  1.00  0.00    -0.010 C 
ATOM     20  C   UNL     1      47.013  18.614  98.002  1.00  0.00     0.012 C 
ATOM     21  C   UNL     1      47.089  21.413  99.480  1.00  0.00     0.016 C 
ATOM     22  C   UNL     1      45.859  22.241  97.459  1.00  0.00     0.016 C 
ATOM     23  C   UNL     1      45.039  17.498  96.885  1.00  0.00     0.016 C 
ATOM     24  C   UNL     1      45.855  16.739  99.129  1.00  0.00     0.016 C 
ENDBRANCH   9  11
ENDBRANCH   1   7
BRANCH   6  25
ATOM     25  C   UNL     1      37.539  25.381 103.528  1.00  0.00     0.335 C 
ATOM     26  O   UNL     1      36.534  24.811 103.967  1.00  0.00    -0.246 OA
BRANCH  25  27
ATOM     27  O   UNL     1      37.662  26.736 103.531  1.00  0.00    -0.478 OA
ATOM     28  H   UNL     1      37.685  27.098 104.443  1.00  0.00     0.297 HD
ENDBRANCH  25  27
ENDBRANCH   6  25
TORSDOF 4
ENDMDL
MODEL 4
REMARK VINA RESULT:   -12.474      1.743      3.017
REMARK INTER + INTRA:         -15.197
REMARK INTER:                 -14.756
REMARK INTRA:                  -0.442
REMARK UNBOUND:                -0.171
REMARK SMILES CC1(C)CCC(C)(C)c2cc(NC(=O)c3ccc(C(=O)O)cc3)ccc21
REMARK SMILES IDX 15 1 16 2 23 3 17 4 22 5 18 6 13 7 14 8 12 9 11 11 10 12
REMARK SMILES IDX 24 13 9 14 25 15 6 16 26 17 5 18 2 19 4 20 7 21 8 22 1 23
REMARK SMILES IDX 3 24 19 25 20 26 21 27
REMARK H PARENT 12 10 21 28
ROOT
ATOM      1  C   UNL     1      41.048  23.328 101.644  1.00  0.00     0.040 A 
ATOM      2  C   UNL     1      40.255  22.844 102.663  1.00  0.00     0.015 A 
ATOM      3  C   UNL     1      40.877  24.590 101.113  1.00  0.00     0.015 A 
ATOM      4  C   UNL     1      39.244  23.657 103.174  1.00  0.00     0.016 A 
ATOM      5  C   UNL     1      39.866  25.404 101.625  1.00  0.00     0.016 A 
ATOM      6  C   UNL     1      39.050  24.937 102.655  1.00  0.00     0.059 A 
ENDROOT
BRANCH   1   7
ATOM      7  C   UNL     1      42.125  22.461 101.099  1.00  0.00     0.255 C 
ATOM      8  O   UNL     1      43.284  22.835 101.237  1.00  0.00    -0.269 OA
ATOM      9  N   UNL     1      41.691  21.273 100.495  1.00  0.00    -0.322 N 
ATOM     10  H   UNL     1      40.691  21.114 100.411  1.00  0.00     0.170 HD
BRANCH   9  11
ATOM     11  C   UNL     1      42.469  20.265  99.925  1.00  0.00     0.041 A 
ATOM     12  C   UNL     1      43.151  20.499  98.732  1.00  0.00     0.030 A 
ATOM     13  C   UNL     1      42.565  19.028 100.539  1.00  0.00     0.026 A 
ATOM     14  C   UNL     1      43.944  19.500  98.121  1.00  0.00    -0.037 A 
ATOM     15  C   UNL     1      43.355  18.033  99.968  1.00  0.00     0.007 A 
ATOM     16  C   UNL     1      44.664  19.822  96.804  1.00  0.00    -0.010 C 
ATOM     17  C   UNL     1      44.074  18.248  98.770  1.00  0.00    -0.038 A 
ATOM     18  C   UNL     1      45.193  18.544  96.118  1.00  0.00     0.012 C 
ATOM     19  C   UNL     1      44.929  17.110  98.199  1.00  0.00    -0.010 C 
ATOM     20  C   UNL     1      45.889  17.617  97.100  1.00  0.00     0.012 C 
ATOM     21  C   UNL     1      45.837  20.783  97.104  1.00  0.00     0.016 C 
ATOM     22  C   UNL     1      43.723  20.507  95.785  1.00  0.00     0.016 C 
ATOM     23  C   UNL     1      43.992  16.029  97.619  1.00  0.00     0.016 C 
ATOM     24  C   UNL     1      45.816  16.454  99.284  1.00  0.00     0.016 C 
ENDBRANCH   9  11
ENDBRANCH   1   7
BRANCH   6  25
ATOM     25  C   UNL     1      37.996  25.787 103.189  1.00  0.00     0.335 C 
ATOM     26  O   UNL     1      36.900  25.393 103.603  1.00  0.00    -0.246 OA
BRANCH  25  27
ATOM     27  O   UNL     1      38.341  27.103 103.191  1.00  0.00    -0.478 OA
ATOM     28  H   UNL     1      37.689  27.653 102.705  1.00  0.00     0.297 HD
ENDBRANCH  25  27
ENDBRANCH   6  25
TORSDOF 4
ENDMDL
MODEL 5
REMARK VINA RESULT:   -12.141      1.051      2.752
REMARK INTER + INTRA:         -14.796
REMARK INTER:                 -14.750
REMARK INTRA:                  -0.046
REMARK UNBOUND:                -0.171
REMARK SMILES CC1(C)CCC(C)(C)c2cc(NC(=O)c3ccc(C(=O)O)cc3)ccc21
REMARK SMILES IDX 15 1 16 2 23 3 17 4 22 5 18 6 13 7 14 8 12 9 11 11 10 12
REMARK SMILES IDX 24 13 9 14 25 15 6 16 26 17 5 18 2 19 4 20 7 21 8 22 1 23
REMARK SMILES IDX 3 24 19 25 20 26 21 27
REMARK H PARENT 12 10 21 28
ROOT
ATOM      1  C   UNL     1      40.611  22.694 101.737  1.00  0.00     0.040 A 
ATOM      2  C   UNL     1      40.778  23.972 101.246  1.00  0.00     0.015 A 
ATOM      3  C   UNL     1      39.694  22.397 102.724  1.00  0.00     0.015 A 
ATOM      4  C   UNL     1      39.993  25.000 101.766  1.00  0.00     0.016 A 
ATOM      5  C   UNL     1      38.909  23.426 103.244  1.00  0.00     0.016 A 
ATOM      6  C   UNL     1      39.059  24.728 102.765  1.00  0.00     0.059 A 
ENDROOT
BRANCH   1   7
ATOM      7  C   UNL     1      41.448  21.598 101.183  1.00  0.00     0.255 C 
ATOM      8  O   UNL     1      41.127  20.444 101.448  1.00  0.00    -0.269 OA
ATOM      9  N   UNL     1      42.521  22.009 100.381  1.00  0.00    -0.322 N 
ATOM     10  H   UNL     1      42.694  23.005 100.284  1.00  0.00     0.170 HD
BRANCH   9  11
ATOM     11  C   UNL     1      43.450  21.209  99.714  1.00  0.00     0.041 A 
ATOM     12  C   UNL     1      44.630  21.767  99.226  1.00  0.00     0.030 A 
ATOM     13  C   UNL     1      43.203  19.859  99.532  1.00  0.00     0.026 A 
ATOM     14  C   UNL     1      45.592  20.991  98.540  1.00  0.00    -0.037 A 
ATOM     15  C   UNL     1      44.144  19.067  98.876  1.00  0.00     0.007 A 
ATOM     16  C   UNL     1      46.867  21.671  98.023  1.00  0.00    -0.010 C 
ATOM     17  C   UNL     1      45.358  19.602  98.389  1.00  0.00    -0.038 A 
ATOM     18  C   UNL     1      47.627  20.770  97.025  1.00  0.00     0.012 C 
ATOM     19  C   UNL     1      46.352  18.673  97.681  1.00  0.00    -0.010 C 
ATOM     20  C   UNL     1      47.737  19.337  97.520  1.00  0.00     0.012 C 
ATOM     21  C   UNL     1      47.775  22.003  99.229  1.00  0.00     0.016 C 
ATOM     22  C   UNL     1      46.555  22.987  97.272  1.00  0.00     0.016 C 
ATOM     23  C   UNL     1      45.783  18.304  96.293  1.00  0.00     0.016 C 
ATOM     24  C   UNL     1      46.584  17.365  98.474  1.00  0.00     0.016 C 
ENDBRANCH   9  11
ENDBRANCH   1   7
BRANCH   6  25
ATOM     25  C   UNL     1      38.239  25.800 103.307  1.00  0.00     0.335 C 
ATOM     26  O   UNL     1      37.246  25.648 104.027  1.00  0.00    -0.246 OA
BRANCH  25  27
ATOM     27  O   UNL     1      38.682  27.032 102.936  1.00  0.00    -0.478 OA
ATOM     28  H   UNL     1      39.476  26.978 102.363  1.00  0.00     0.297 HD
ENDBRANCH  25  27
ENDBRANCH   6  25
TORSDOF 4
ENDMDL
