MODEL 1
REMARK VINA RESULT:    -6.404      0.000      0.000
REMARK INTER + INTRA:          -7.461
REMARK INTER:                  -7.153
REMARK INTRA:                  -0.308
REMARK UNBOUND:                -0.308
REMARK SMILES O=C(N[C@H]1CN2CCC1CC2)c1cc2cccc(Cl)c2s1
REMARK SMILES IDX 12 1 13 2 14 3 20 4 18 5 17 6 16 7 15 8 21 9 19 10 2 11 3 12
REMARK SMILES IDX 1 13 4 15 9 16 5 17 8 18 10 19 6 20 7 21 11 22
REMARK H PARENT 3 14
ROOT
ATOM      1  C   UNL     1     141.242 140.283  95.661  1.00  0.00     0.093 A 
ATOM      2  C   UNL     1     139.943 140.114  95.997  1.00  0.00     0.034 A 
ATOM      3  C   UNL     1     139.306 141.071  96.856  1.00  0.00    -0.005 A 
ATOM      4  C   UNL     1     140.179 142.139  97.262  1.00  0.00     0.054 A 
ATOM      5  C   UNL     1     139.705 143.131  98.086  1.00  0.00     0.058 A 
ATOM      6  C   UNL     1     138.377 143.097  98.524  1.00  0.00     0.022 A 
ATOM      7  C   UNL     1     137.527 142.051  98.126  1.00  0.00     0.002 A 
ATOM      8  C   UNL     1     138.006 141.043  97.289  1.00  0.00     0.010 A 
ATOM      9  S   UNL     1     141.758 141.745  96.453  1.00  0.00    -0.128 S 
ATOM     10  Cl  UNL     1     140.779 144.459  98.597  1.00  0.00    -0.083 Cl
ENDROOT
BRANCH   1  11
ATOM     11  C   UNL     1     142.063 139.354  94.759  1.00  0.00     0.261 C 
ATOM     12  N   UNL     1     142.878 139.895  93.689  1.00  0.00    -0.347 N 
ATOM     13  O   UNL     1     142.029 138.184  94.938  1.00  0.00    -0.268 OA
ATOM     14  H   UNL     1     142.910 140.866  93.532  1.00  0.00     0.164 HD
BRANCH  12  15
ATOM     15  C   UNL     1     143.661 138.975  92.833  1.00  0.00     0.099 C 
ATOM     16  C   UNL     1     144.962 139.563  92.527  1.00  0.00     0.015 C 
ATOM     17  C   UNL     1     142.917 138.733  91.505  1.00  0.00     0.109 C 
ATOM     18  C   UNL     1     145.675 138.667  91.660  1.00  0.00     0.021 C 
ATOM     19  C   UNL     1     144.743 140.818  91.813  1.00  0.00     0.021 C 
ATOM     20  N   UNL     1     143.700 139.110  90.410  1.00  0.00    -0.301 NA
ATOM     21  C   UNL     1     144.889 138.413  90.408  1.00  0.00     0.085 C 
ATOM     22  C   UNL     1     143.973 140.498  90.475  1.00  0.00     0.085 C 
ENDBRANCH  12  15
ENDBRANCH   1  11
TORSDOF 2
ENDMDL
MODEL 2
REMARK VINA RESULT:    -6.141      1.895      2.435
REMARK INTER + INTRA:          -7.167
REMARK INTER:                  -6.937
REMARK INTRA:                  -0.229
REMARK UNBOUND:                -0.308
REMARK SMILES O=C(N[C@H]1CN2CCC1CC2)c1cc2cccc(Cl)c2s1
REMARK SMILES IDX 12 1 13 2 14 3 20 4 18 5 17 6 16 7 15 8 21 9 19 10 2 11 3 12
REMARK SMILES IDX 1 13 4 15 9 16 5 17 8 18 10 19 6 20 7 21 11 22
REMARK H PARENT 3 14
ROOT
ATOM      1  C   UNL     1     141.528 141.131  95.873  1.00  0.00     0.093 A 
ATOM      2  C   UNL     1     141.292 142.241  96.612  1.00  0.00     0.034 A 
ATOM      3  C   UNL     1     140.021 142.402  97.257  1.00  0.00    -0.005 A 
ATOM      4  C   UNL     1     139.122 141.304  97.022  1.00  0.00     0.054 A 
ATOM      5  C   UNL     1     137.866 141.321  97.580  1.00  0.00     0.058 A 
ATOM      6  C   UNL     1     137.470 142.403  98.371  1.00  0.00     0.022 A 
ATOM      7  C   UNL     1     138.351 143.474  98.598  1.00  0.00     0.002 A 
ATOM      8  C   UNL     1     139.626 143.460  98.033  1.00  0.00     0.010 A 
ATOM      9  S   UNL     1     140.075 140.177  95.962  1.00  0.00    -0.128 S 
ATOM     10  Cl  UNL     1     136.743 139.965  97.294  1.00  0.00    -0.083 Cl
ENDROOT
BRANCH   1  11
ATOM     11  C   UNL     1     142.826 140.813  95.124  1.00  0.00     0.261 C 
ATOM     12  N   UNL     1     142.791 140.366  93.745  1.00  0.00    -0.347 N 
ATOM     13  O   UNL     1     143.867 140.930  95.678  1.00  0.00    -0.268 OA
ATOM     14  H   UNL     1     141.931 140.264  93.278  1.00  0.00     0.164 HD
BRANCH  12  15
ATOM     15  C   UNL     1     144.060 140.065  93.044  1.00  0.00     0.099 C 
ATOM     16  C   UNL     1     143.876 140.186  91.601  1.00  0.00     0.015 C 
ATOM     17  C   UNL     1     144.501 138.620  93.353  1.00  0.00     0.109 C 
ATOM     18  C   UNL     1     145.110 139.843  90.951  1.00  0.00     0.021 C 
ATOM     19  C   UNL     1     142.855 139.228  91.185  1.00  0.00     0.021 C 
ATOM     20  N   UNL     1     144.623 137.867  92.182  1.00  0.00    -0.301 NA
ATOM     21  C   UNL     1     145.531 138.454  91.327  1.00  0.00     0.085 C 
ATOM     22  C   UNL     1     143.365 137.779  91.538  1.00  0.00     0.085 C 
ENDBRANCH  12  15
ENDBRANCH   1  11
TORSDOF 2
ENDMDL
MODEL 3
REMARK VINA RESULT:    -5.826      5.853      7.097
REMARK INTER + INTRA:          -6.816
REMARK INTER:                  -6.501
REMARK INTRA:                  -0.314
REMARK UNBOUND:                -0.308
REMARK SMILES O=C(N[C@H]1CN2CCC1CC2)c1cc2cccc(Cl)c2s1
REMARK SMILES IDX 12 1 13 2 14 3 20 4 18 5 17 6 16 7 15 8 21 9 19 10 2 11 3 12
REMARK SMILES IDX 1 13 4 15 9 16 5 17 8 18 10 19 6 20 7 21 11 22
REMARK H PARENT 3 14
ROOT
ATOM      1  C   UNL     1     145.392 142.652  94.432  1.00  0.00     0.093 A 
ATOM      2  C   UNL     1     144.334 142.864  95.249  1.00  0.00     0.034 A 
ATOM      3  C   UNL     1     143.279 141.894  95.303  1.00  0.00    -0.005 A 
ATOM      4  C   UNL     1     143.500 140.766  94.438  1.00  0.00     0.054 A 
ATOM      5  C   UNL     1     142.571 139.755  94.386  1.00  0.00     0.058 A 
ATOM      6  C   UNL     1     141.417 139.828  95.174  1.00  0.00     0.022 A 
ATOM      7  C   UNL     1     141.204 140.932  96.017  1.00  0.00     0.002 A 
ATOM      8  C   UNL     1     142.146 141.960  96.071  1.00  0.00     0.010 A 
ATOM      9  S   UNL     1     145.095 141.128  93.646  1.00  0.00    -0.128 S 
ATOM     10  Cl  UNL     1     142.834 138.352  93.317  1.00  0.00    -0.083 Cl
ENDROOT
BRANCH   1  11
ATOM     11  C   UNL     1     146.594 143.588  94.260  1.00  0.00     0.261 C 
ATOM     12  N   UNL     1     147.879 143.254  94.843  1.00  0.00    -0.347 N 
ATOM     13  O   UNL     1     146.469 144.595  93.648  1.00  0.00    -0.268 OA
ATOM     14  H   UNL     1     147.990 142.421  95.355  1.00  0.00     0.164 HD
BRANCH  12  15
ATOM     15  C   UNL     1     149.023 144.176  94.661  1.00  0.00     0.099 C 
ATOM     16  C   UNL     1     150.167 143.452  94.114  1.00  0.00     0.015 C 
ATOM     17  C   UNL     1     149.436 144.774  96.021  1.00  0.00     0.109 C 
ATOM     18  C   UNL     1     151.270 144.364  93.995  1.00  0.00     0.021 C 
ATOM     19  C   UNL     1     150.538 142.401  95.057  1.00  0.00     0.021 C 
ATOM     20  N   UNL     1     150.770 144.482  96.317  1.00  0.00    -0.301 NA
ATOM     21  C   UNL     1     151.599 144.967  95.328  1.00  0.00     0.085 C 
ATOM     22  C   UNL     1     150.939 143.080  96.422  1.00  0.00     0.085 C 
ENDBRANCH  12  15
ENDBRANCH   1  11
TORSDOF 2
ENDMDL
MODEL 4
REMARK VINA RESULT:    -5.675      6.204      9.550
REMARK INTER + INTRA:          -6.647
REMARK INTER:                  -6.352
REMARK INTRA:                  -0.295
REMARK UNBOUND:                -0.308
REMARK SMILES O=C(N[C@H]1CN2CCC1CC2)c1cc2cccc(Cl)c2s1
REMARK SMILES IDX 12 1 13 2 14 3 20 4 18 5 17 6 16 7 15 8 21 9 19 10 2 11 3 12
REMARK SMILES IDX 1 13 4 15 9 16 5 17 8 18 10 19 6 20 7 21 11 22
REMARK H PARENT 3 14
ROOT
ATOM      1  C   UNL     1     141.079 139.510  87.498  1.00  0.00     0.093 A 
ATOM      2  C   UNL     1     141.788 139.450  86.347  1.00  0.00     0.034 A 
ATOM      3  C   UNL     1     141.244 138.750  85.219  1.00  0.00    -0.005 A 
ATOM      4  C   UNL     1     139.949 138.180  85.475  1.00  0.00     0.054 A 
ATOM      5  C   UNL     1     139.304 137.481  84.484  1.00  0.00     0.058 A 
ATOM      6  C   UNL     1     139.909 137.329  83.232  1.00  0.00     0.022 A 
ATOM      7  C   UNL     1     141.174 137.887  82.985  1.00  0.00     0.002 A 
ATOM      8  C   UNL     1     141.832 138.597  83.991  1.00  0.00     0.010 A 
ATOM      9  S   UNL     1     139.602 138.639  87.200  1.00  0.00    -0.128 S 
ATOM     10  Cl  UNL     1     137.698 136.768  84.791  1.00  0.00    -0.083 Cl
ENDROOT
BRANCH   1  11
ATOM     11  C   UNL     1     141.520 140.213  88.787  1.00  0.00     0.261 C 
ATOM     12  N   UNL     1     142.598 139.670  89.592  1.00  0.00    -0.347 N 
ATOM     13  O   UNL     1     140.974 141.206  89.129  1.00  0.00    -0.268 OA
ATOM     14  H   UNL     1     143.055 138.843  89.316  1.00  0.00     0.164 HD
BRANCH  12  15
ATOM     15  C   UNL     1     143.003 140.369  90.832  1.00  0.00     0.099 C 
ATOM     16  C   UNL     1     144.436 140.198  91.057  1.00  0.00     0.015 C 
ATOM     17  C   UNL     1     142.253 139.774  92.040  1.00  0.00     0.109 C 
ATOM     18  C   UNL     1     144.787 140.847  92.289  1.00  0.00     0.021 C 
ATOM     19  C   UNL     1     144.712 138.770  91.193  1.00  0.00     0.021 C 
ATOM     20  N   UNL     1     143.143 139.280  92.997  1.00  0.00    -0.301 NA
ATOM     21  C   UNL     1     143.989 140.279  93.426  1.00  0.00     0.085 C 
ATOM     22  C   UNL     1     143.909 138.228  92.436  1.00  0.00     0.085 C 
ENDBRANCH  12  15
ENDBRANCH   1  11
TORSDOF 2
ENDMDL
MODEL 5
REMARK VINA RESULT:    -5.672      6.312      7.677
REMARK INTER + INTRA:          -6.644
REMARK INTER:                  -6.337
REMARK INTRA:                  -0.307
REMARK UNBOUND:                -0.308
REMARK SMILES O=C(N[C@H]1CN2CCC1CC2)c1cc2cccc(Cl)c2s1
REMARK SMILES IDX 12 1 13 2 14 3 20 4 18 5 17 6 16 7 15 8 21 9 19 10 2 11 3 12
REMARK SMILES IDX 1 13 4 15 9 16 5 17 8 18 10 19 6 20 7 21 11 22
REMARK H PARENT 3 14
ROOT
ATOM      1  C   UNL     1     145.226 142.823  94.593  1.00  0.00     0.093 A 
ATOM      2  C   UNL     1     144.139 142.837  95.399  1.00  0.00     0.034 A 
ATOM      3  C   UNL     1     143.204 141.749  95.341  1.00  0.00    -0.005 A 
ATOM      4  C   UNL     1     143.569 140.737  94.387  1.00  0.00     0.054 A 
ATOM      5  C   UNL     1     142.766 139.633  94.223  1.00  0.00     0.058 A 
ATOM      6  C   UNL     1     141.601 139.501  94.985  1.00  0.00     0.022 A 
ATOM      7  C   UNL     1     141.247 140.493  95.915  1.00  0.00     0.002 A 
ATOM      8  C   UNL     1     142.060 141.615  96.083  1.00  0.00     0.010 A 
ATOM      9  S   UNL     1     145.122 141.352  93.669  1.00  0.00    -0.128 S 
ATOM     10  Cl  UNL     1     143.209 138.373  93.043  1.00  0.00    -0.083 Cl
ENDROOT
BRANCH   1  11
ATOM     11  C   UNL     1     146.311 143.904  94.534  1.00  0.00     0.261 C 
ATOM     12  N   UNL     1     146.775 144.551  95.746  1.00  0.00    -0.347 N 
ATOM     13  O   UNL     1     146.771 144.215  93.488  1.00  0.00    -0.268 OA
ATOM     14  H   UNL     1     146.396 144.300  96.619  1.00  0.00     0.164 HD
BRANCH  12  15
ATOM     15  C   UNL     1     147.824 145.592  95.660  1.00  0.00     0.099 C 
ATOM     16  C   UNL     1     148.675 145.544  96.846  1.00  0.00     0.015 C 
ATOM     17  C   UNL     1     147.174 146.988  95.590  1.00  0.00     0.109 C 
ATOM     18  C   UNL     1     149.650 146.594  96.752  1.00  0.00     0.021 C 
ATOM     19  C   UNL     1     147.842 145.793  98.019  1.00  0.00     0.021 C 
ATOM     20  N   UNL     1     147.602 147.799  96.644  1.00  0.00    -0.301 NA
ATOM     21  C   UNL     1     148.974 147.927  96.625  1.00  0.00     0.085 C 
ATOM     22  C   UNL     1     147.204 147.227  97.878  1.00  0.00     0.085 C 
ENDBRANCH  12  15
ENDBRANCH   1  11
TORSDOF 2
ENDMDL
MODEL 6
REMARK VINA RESULT:    -5.627      5.621      7.512
REMARK INTER + INTRA:          -6.593
REMARK INTER:                  -6.279
REMARK INTRA:                  -0.314
REMARK UNBOUND:                -0.308
REMARK SMILES O=C(N[C@H]1CN2CCC1CC2)c1cc2cccc(Cl)c2s1
REMARK SMILES IDX 12 1 13 2 14 3 20 4 18 5 17 6 16 7 15 8 21 9 19 10 2 11 3 12
REMARK SMILES IDX 1 13 4 15 9 16 5 17 8 18 10 19 6 20 7 21 11 22
REMARK H PARENT 3 14
ROOT
ATOM      1  C   UNL     1     145.285 143.017  94.755  1.00  0.00     0.093 A 
ATOM      2  C   UNL     1     145.585 141.988  93.929  1.00  0.00     0.034 A 
ATOM      3  C   UNL     1     144.660 140.899  93.794  1.00  0.00    -0.005 A 
ATOM      4  C   UNL     1     143.475 141.058  94.593  1.00  0.00     0.054 A 
ATOM      5  C   UNL     1     142.498 140.092  94.563  1.00  0.00     0.058 A 
ATOM      6  C   UNL     1     142.662 138.961  93.757  1.00  0.00     0.022 A 
ATOM      7  C   UNL     1     143.822 138.809  92.978  1.00  0.00     0.002 A 
ATOM      8  C   UNL     1     144.815 139.789  93.007  1.00  0.00     0.010 A 
ATOM      9  S   UNL     1     143.729 142.646  95.441  1.00  0.00    -0.128 S 
ATOM     10  Cl  UNL     1     141.026 140.279  95.551  1.00  0.00    -0.083 Cl
ENDROOT
BRANCH   1  11
ATOM     11  C   UNL     1     146.163 144.247  95.010  1.00  0.00     0.261 C 
ATOM     12  N   UNL     1     147.131 144.680  94.020  1.00  0.00    -0.347 N 
ATOM     13  O   UNL     1     146.052 144.846  96.025  1.00  0.00    -0.268 OA
ATOM     14  H   UNL     1     147.232 144.186  93.175  1.00  0.00     0.164 HD
BRANCH  12  15
ATOM     15  C   UNL     1     147.967 145.872  94.292  1.00  0.00     0.099 C 
ATOM     16  C   UNL     1     148.195 146.615  93.056  1.00  0.00     0.015 C 
ATOM     17  C   UNL     1     149.336 145.437  94.852  1.00  0.00     0.109 C 
ATOM     18  C   UNL     1     149.045 147.736  93.347  1.00  0.00     0.021 C 
ATOM     19  C   UNL     1     148.891 145.741  92.116  1.00  0.00     0.021 C 
ATOM     20  N   UNL     1     150.381 145.896  94.047  1.00  0.00    -0.301 NA
ATOM     21  C   UNL     1     150.340 147.270  93.945  1.00  0.00     0.085 C 
ATOM     22  C   UNL     1     150.272 145.328  92.754  1.00  0.00     0.085 C 
ENDBRANCH  12  15
ENDBRANCH   1  11
TORSDOF 2
ENDMDL
MODEL 7
REMARK VINA RESULT:    -5.545      6.337     10.172
REMARK INTER + INTRA:          -6.502
REMARK INTER:                  -6.189
REMARK INTRA:                  -0.313
REMARK UNBOUND:                -0.308
REMARK SMILES O=C(N[C@H]1CN2CCC1CC2)c1cc2cccc(Cl)c2s1
REMARK SMILES IDX 12 1 13 2 14 3 20 4 18 5 17 6 16 7 15 8 21 9 19 10 2 11 3 12
REMARK SMILES IDX 1 13 4 15 9 16 5 17 8 18 10 19 6 20 7 21 11 22
REMARK H PARENT 3 14
ROOT
ATOM      1  C   UNL     1     149.182 137.976  91.685  1.00  0.00     0.093 A 
ATOM      2  C   UNL     1     149.878 138.651  92.628  1.00  0.00     0.034 A 
ATOM      3  C   UNL     1     151.205 138.222  92.968  1.00  0.00    -0.005 A 
ATOM      4  C   UNL     1     151.639 137.073  92.220  1.00  0.00     0.054 A 
ATOM      5  C   UNL     1     152.891 136.551  92.439  1.00  0.00     0.058 A 
ATOM      6  C   UNL     1     153.735 137.138  93.387  1.00  0.00     0.022 A 
ATOM      7  C   UNL     1     153.306 138.260  94.117  1.00  0.00     0.002 A 
ATOM      8  C   UNL     1     152.035 138.792  93.896  1.00  0.00     0.010 A 
ATOM      9  S   UNL     1     150.224 136.692  91.144  1.00  0.00    -0.128 S 
ATOM     10  Cl  UNL     1     153.439 135.127  91.517  1.00  0.00    -0.083 Cl
ENDROOT
BRANCH   1  11
ATOM     11  C   UNL     1     147.761 138.305  91.212  1.00  0.00     0.261 C 
ATOM     12  N   UNL     1     146.660 138.337  92.155  1.00  0.00    -0.347 N 
ATOM     13  O   UNL     1     147.563 138.531  90.067  1.00  0.00    -0.268 OA
ATOM     14  H   UNL     1     146.816 138.148  93.108  1.00  0.00     0.164 HD
BRANCH  12  15
ATOM     15  C   UNL     1     145.297 138.658  91.672  1.00  0.00     0.099 C 
ATOM     16  C   UNL     1     145.059 140.095  91.764  1.00  0.00     0.015 C 
ATOM     17  C   UNL     1     144.248 137.939  92.543  1.00  0.00     0.109 C 
ATOM     18  C   UNL     1     143.716 140.365  91.332  1.00  0.00     0.021 C 
ATOM     19  C   UNL     1     145.181 140.492  93.164  1.00  0.00     0.021 C 
ATOM     20  N   UNL     1     143.370 138.851  93.134  1.00  0.00    -0.301 NA
ATOM     21  C   UNL     1     142.733 139.599  92.168  1.00  0.00     0.085 C 
ATOM     22  C   UNL     1     144.090 139.716  93.995  1.00  0.00     0.085 C 
ENDBRANCH  12  15
ENDBRANCH   1  11
TORSDOF 2
ENDMDL
MODEL 8
REMARK VINA RESULT:    -5.448      5.976      7.337
REMARK INTER + INTRA:          -6.393
REMARK INTER:                  -6.114
REMARK INTRA:                  -0.280
REMARK UNBOUND:                -0.308
REMARK SMILES O=C(N[C@H]1CN2CCC1CC2)c1cc2cccc(Cl)c2s1
REMARK SMILES IDX 12 1 13 2 14 3 20 4 18 5 17 6 16 7 15 8 21 9 19 10 2 11 3 12
REMARK SMILES IDX 1 13 4 15 9 16 5 17 8 18 10 19 6 20 7 21 11 22
REMARK H PARENT 3 14
ROOT
ATOM      1  C   UNL     1     145.298 143.222  94.768  1.00  0.00     0.093 A 
ATOM      2  C   UNL     1     144.120 143.055  95.412  1.00  0.00     0.034 A 
ATOM      3  C   UNL     1     143.384 141.836  95.233  1.00  0.00    -0.005 A 
ATOM      4  C   UNL     1     144.033 140.907  94.348  1.00  0.00     0.054 A 
ATOM      5  C   UNL     1     143.443 139.694  94.082  1.00  0.00     0.058 A 
ATOM      6  C   UNL     1     142.218 139.371  94.674  1.00  0.00     0.022 A 
ATOM      7  C   UNL     1     141.587 140.283  95.537  1.00  0.00     0.002 A 
ATOM      8  C   UNL     1     142.183 141.515  95.808  1.00  0.00     0.010 A 
ATOM      9  S   UNL     1     145.556 141.766  93.851  1.00  0.00    -0.128 S 
ATOM     10  Cl  UNL     1     144.239 138.534  92.986  1.00  0.00    -0.083 Cl
ENDROOT
BRANCH   1  11
ATOM     11  C   UNL     1     146.199 144.460  94.853  1.00  0.00     0.261 C 
ATOM     12  N   UNL     1     147.242 144.681  93.870  1.00  0.00    -0.347 N 
ATOM     13  O   UNL     1     146.042 145.240  95.730  1.00  0.00    -0.268 OA
ATOM     14  H   UNL     1     147.381 144.036  93.140  1.00  0.00     0.164 HD
BRANCH  12  15
ATOM     15  C   UNL     1     148.098 145.885  93.976  1.00  0.00     0.099 C 
ATOM     16  C   UNL     1     148.516 146.319  92.646  1.00  0.00     0.015 C 
ATOM     17  C   UNL     1     149.363 145.560  94.795  1.00  0.00     0.109 C 
ATOM     18  C   UNL     1     149.380 147.458  92.787  1.00  0.00     0.021 C 
ATOM     19  C   UNL     1     149.277 145.237  92.027  1.00  0.00     0.021 C 
ATOM     20  N   UNL     1     150.522 145.800  94.053  1.00  0.00    -0.301 NA
ATOM     21  C   UNL     1     150.564 147.114  93.641  1.00  0.00     0.085 C 
ATOM     22  C   UNL     1     150.545 144.953  92.918  1.00  0.00     0.085 C 
ENDBRANCH  12  15
ENDBRANCH   1  11
TORSDOF 2
ENDMDL
MODEL 9
REMARK VINA RESULT:    -5.304      5.092      7.525
REMARK INTER + INTRA:          -6.233
REMARK INTER:                  -5.911
REMARK INTRA:                  -0.322
REMARK UNBOUND:                -0.308
REMARK SMILES O=C(N[C@H]1CN2CCC1CC2)c1cc2cccc(Cl)c2s1
REMARK SMILES IDX 12 1 13 2 14 3 20 4 18 5 17 6 16 7 15 8 21 9 19 10 2 11 3 12
REMARK SMILES IDX 1 13 4 15 9 16 5 17 8 18 10 19 6 20 7 21 11 22
REMARK H PARENT 3 14
ROOT
ATOM      1  C   UNL     1     146.513 138.616  91.484  1.00  0.00     0.093 A 
ATOM      2  C   UNL     1     145.710 138.990  90.462  1.00  0.00     0.034 A 
ATOM      3  C   UNL     1     144.371 139.426  90.739  1.00  0.00    -0.005 A 
ATOM      4  C   UNL     1     144.048 139.409  92.141  1.00  0.00     0.054 A 
ATOM      5  C   UNL     1     142.799 139.803  92.557  1.00  0.00     0.058 A 
ATOM      6  C   UNL     1     141.851 140.219  91.616  1.00  0.00     0.022 A 
ATOM      7  C   UNL     1     142.170 140.233  90.248  1.00  0.00     0.002 A 
ATOM      8  C   UNL     1     143.437 139.833  89.823  1.00  0.00     0.010 A 
ATOM      9  S   UNL     1     145.570 138.809  92.934  1.00  0.00    -0.128 S 
ATOM     10  Cl  UNL     1     142.387 139.785  94.291  1.00  0.00    -0.083 Cl
ENDROOT
BRANCH   1  11
ATOM     11  C   UNL     1     147.960 138.126  91.354  1.00  0.00     0.261 C 
ATOM     12  N   UNL     1     148.664 138.233  90.091  1.00  0.00    -0.347 N 
ATOM     13  O   UNL     1     148.505 137.655  92.294  1.00  0.00    -0.268 OA
ATOM     14  H   UNL     1     148.217 138.621  89.305  1.00  0.00     0.164 HD
BRANCH  12  15
ATOM     15  C   UNL     1     150.061 137.752  89.993  1.00  0.00     0.099 C 
ATOM     16  C   UNL     1     150.844 138.657  89.157  1.00  0.00     0.015 C 
ATOM     17  C   UNL     1     150.091 136.353  89.346  1.00  0.00     0.109 C 
ATOM     18  C   UNL     1     152.179 138.138  89.046  1.00  0.00     0.021 C 
ATOM     19  C   UNL     1     150.248 138.684  87.824  1.00  0.00     0.021 C 
ATOM     20  N   UNL     1     150.869 136.348  88.186  1.00  0.00    -0.301 NA
ATOM     21  C   UNL     1     152.155 136.753  88.469  1.00  0.00     0.085 C 
ATOM     22  C   UNL     1     150.302 137.226  87.229  1.00  0.00     0.085 C 
ENDBRANCH  12  15
ENDBRANCH   1  11
TORSDOF 2
ENDMDL
MODEL 10
REMARK VINA RESULT:    -5.269     10.734     11.716
REMARK INTER + INTRA:          -6.194
REMARK INTER:                  -5.955
REMARK INTRA:                  -0.238
REMARK UNBOUND:                -0.308
REMARK SMILES O=C(N[C@H]1CN2CCC1CC2)c1cc2cccc(Cl)c2s1
REMARK SMILES IDX 12 1 13 2 14 3 20 4 18 5 17 6 16 7 15 8 21 9 19 10 2 11 3 12
REMARK SMILES IDX 1 13 4 15 9 16 5 17 8 18 10 19 6 20 7 21 11 22
REMARK H PARENT 3 14
ROOT
ATOM      1  C   UNL     1     151.206 136.697  89.687  1.00  0.00     0.093 A 
ATOM      2  C   UNL     1     152.221 136.195  90.429  1.00  0.00     0.034 A 
ATOM      3  C   UNL     1     152.483 136.744  91.729  1.00  0.00    -0.005 A 
ATOM      4  C   UNL     1     151.583 137.806  92.089  1.00  0.00     0.054 A 
ATOM      5  C   UNL     1     151.714 138.427  93.308  1.00  0.00     0.058 A 
ATOM      6  C   UNL     1     152.719 138.021  94.191  1.00  0.00     0.022 A 
ATOM      7  C   UNL     1     153.598 136.983  93.836  1.00  0.00     0.002 A 
ATOM      8  C   UNL     1     153.467 136.352  92.598  1.00  0.00     0.010 A 
ATOM      9  S   UNL     1     150.486 137.957  90.647  1.00  0.00    -0.128 S 
ATOM     10  Cl  UNL     1     150.604 139.746  93.764  1.00  0.00    -0.083 Cl
ENDROOT
BRANCH   1  11
ATOM     11  C   UNL     1     150.802 136.225  88.287  1.00  0.00     0.261 C 
ATOM     12  N   UNL     1     149.499 135.631  88.056  1.00  0.00    -0.347 N 
ATOM     13  O   UNL     1     151.561 136.343  87.386  1.00  0.00    -0.268 OA
ATOM     14  H   UNL     1     148.863 135.526  88.800  1.00  0.00     0.164 HD
BRANCH  12  15
ATOM     15  C   UNL     1     149.133 135.183  86.693  1.00  0.00     0.099 C 
ATOM     16  C   UNL     1     148.598 136.303  85.925  1.00  0.00     0.015 C 
ATOM     17  C   UNL     1     148.048 134.091  86.772  1.00  0.00     0.109 C 
ATOM     18  C   UNL     1     148.211 135.825  84.627  1.00  0.00     0.021 C 
ATOM     19  C   UNL     1     147.405 136.800  86.607  1.00  0.00     0.021 C 
ATOM     20  N   UNL     1     146.898 134.469  86.074  1.00  0.00    -0.301 NA
ATOM     21  C   UNL     1     147.201 134.724  84.754  1.00  0.00     0.085 C 
ATOM     22  C   UNL     1     146.346 135.634  86.661  1.00  0.00     0.085 C 
ENDBRANCH  12  15
ENDBRANCH   1  11
TORSDOF 2
ENDMDL
MODEL 11
REMARK VINA RESULT:    -5.207      6.157      8.010
REMARK INTER + INTRA:          -6.124
REMARK INTER:                  -5.832
REMARK INTRA:                  -0.292
REMARK UNBOUND:                -0.308
REMARK SMILES O=C(N[C@H]1CN2CCC1CC2)c1cc2cccc(Cl)c2s1
REMARK SMILES IDX 12 1 13 2 14 3 20 4 18 5 17 6 16 7 15 8 21 9 19 10 2 11 3 12
REMARK SMILES IDX 1 13 4 15 9 16 5 17 8 18 10 19 6 20 7 21 11 22
REMARK H PARENT 3 14
ROOT
ATOM      1  C   UNL     1     145.268 143.186  94.742  1.00  0.00     0.093 A 
ATOM      2  C   UNL     1     145.552 142.191  93.870  1.00  0.00     0.034 A 
ATOM      3  C   UNL     1     144.661 141.071  93.764  1.00  0.00    -0.005 A 
ATOM      4  C   UNL     1     143.525 141.164  94.641  1.00  0.00     0.054 A 
ATOM      5  C   UNL     1     142.585 140.161  94.647  1.00  0.00     0.058 A 
ATOM      6  C   UNL     1     142.738 139.059  93.800  1.00  0.00     0.022 A 
ATOM      7  C   UNL     1     143.849 138.971  92.945  1.00  0.00     0.002 A 
ATOM      8  C   UNL     1     144.805 139.987  92.938  1.00  0.00     0.010 A 
ATOM      9  S   UNL     1     143.775 142.738  95.515  1.00  0.00    -0.128 S 
ATOM     10  Cl  UNL     1     141.174 140.266  95.731  1.00  0.00    -0.083 Cl
ENDROOT
BRANCH   1  11
ATOM     11  C   UNL     1     146.115 144.442  94.974  1.00  0.00     0.261 C 
ATOM     12  N   UNL     1     147.063 144.500  96.070  1.00  0.00    -0.347 N 
ATOM     13  O   UNL     1     145.992 145.374  94.254  1.00  0.00    -0.268 OA
ATOM     14  H   UNL     1     147.170 143.731  96.675  1.00  0.00     0.164 HD
BRANCH  12  15
ATOM     15  C   UNL     1     147.868 145.726  96.273  1.00  0.00     0.099 C 
ATOM     16  C   UNL     1     149.129 145.622  95.544  1.00  0.00     0.015 C 
ATOM     17  C   UNL     1     148.191 145.902  97.770  1.00  0.00     0.109 C 
ATOM     18  C   UNL     1     149.904 146.805  95.798  1.00  0.00     0.021 C 
ATOM     19  C   UNL     1     149.864 144.470  96.059  1.00  0.00     0.021 C 
ATOM     20  N   UNL     1     149.570 145.940  97.989  1.00  0.00    -0.301 NA
ATOM     21  C   UNL     1     150.142 146.968  97.270  1.00  0.00     0.085 C 
ATOM     22  C   UNL     1     150.151 144.711  97.590  1.00  0.00     0.085 C 
ENDBRANCH  12  15
ENDBRANCH   1  11
TORSDOF 2
ENDMDL
MODEL 12
REMARK VINA RESULT:    -5.189      4.807      5.691
REMARK INTER + INTRA:          -6.104
REMARK INTER:                  -5.778
REMARK INTRA:                  -0.326
REMARK UNBOUND:                -0.308
REMARK SMILES O=C(N[C@H]1CN2CCC1CC2)c1cc2cccc(Cl)c2s1
REMARK SMILES IDX 12 1 13 2 14 3 20 4 18 5 17 6 16 7 15 8 21 9 19 10 2 11 3 12
REMARK SMILES IDX 1 13 4 15 9 16 5 17 8 18 10 19 6 20 7 21 11 22
REMARK H PARENT 3 14
ROOT
ATOM      1  C   UNL     1     143.899 142.547  95.334  1.00  0.00     0.093 A 
ATOM      2  C   UNL     1     143.499 143.292  96.390  1.00  0.00     0.034 A 
ATOM      3  C   UNL     1     142.241 143.006  97.020  1.00  0.00    -0.005 A 
ATOM      4  C   UNL     1     141.540 141.906  96.414  1.00  0.00     0.054 A 
ATOM      5  C   UNL     1     140.321 141.518  96.914  1.00  0.00     0.058 A 
ATOM      6  C   UNL     1     139.769 142.193  98.007  1.00  0.00     0.022 A 
ATOM      7  C   UNL     1     140.456 143.268  98.595  1.00  0.00     0.002 A 
ATOM      8  C   UNL     1     141.695 143.665  98.090  1.00  0.00     0.010 A 
ATOM      9  S   UNL     1     142.639 141.376  95.066  1.00  0.00    -0.128 S 
ATOM     10  Cl  UNL     1     139.443 140.156  96.170  1.00  0.00    -0.083 Cl
ENDROOT
BRANCH   1  11
ATOM     11  C   UNL     1     145.207 142.725  94.555  1.00  0.00     0.261 C 
ATOM     12  N   UNL     1     146.212 143.667  95.007  1.00  0.00    -0.347 N 
ATOM     13  O   UNL     1     145.395 142.090  93.573  1.00  0.00    -0.268 OA
ATOM     14  H   UNL     1     146.062 144.200  95.821  1.00  0.00     0.164 HD
BRANCH  12  15
ATOM     15  C   UNL     1     147.466 143.820  94.235  1.00  0.00     0.099 C 
ATOM     16  C   UNL     1     148.614 143.803  95.137  1.00  0.00     0.015 C 
ATOM     17  C   UNL     1     147.462 145.168  93.487  1.00  0.00     0.109 C 
ATOM     18  C   UNL     1     149.808 144.000  94.363  1.00  0.00     0.021 C 
ATOM     19  C   UNL     1     148.481 144.919  96.071  1.00  0.00     0.021 C 
ATOM     20  N   UNL     1     148.553 145.957  93.859  1.00  0.00    -0.301 NA
ATOM     21  C   UNL     1     149.734 145.293  93.606  1.00  0.00     0.085 C 
ATOM     22  C   UNL     1     148.474 146.259  95.241  1.00  0.00     0.085 C 
ENDBRANCH  12  15
ENDBRANCH   1  11
TORSDOF 2
ENDMDL
MODEL 13
REMARK VINA RESULT:    -5.154      6.094      7.331
REMARK INTER + INTRA:          -6.065
REMARK INTER:                  -5.781
REMARK INTRA:                  -0.284
REMARK UNBOUND:                -0.308
REMARK SMILES O=C(N[C@H]1CN2CCC1CC2)c1cc2cccc(Cl)c2s1
REMARK SMILES IDX 12 1 13 2 14 3 20 4 18 5 17 6 16 7 15 8 21 9 19 10 2 11 3 12
REMARK SMILES IDX 1 13 4 15 9 16 5 17 8 18 10 19 6 20 7 21 11 22
REMARK H PARENT 3 14
ROOT
ATOM      1  C   UNL     1     145.720 142.808  94.558  1.00  0.00     0.093 A 
ATOM      2  C   UNL     1     144.675 143.148  95.348  1.00  0.00     0.034 A 
ATOM      3  C   UNL     1     143.520 142.297  95.396  1.00  0.00    -0.005 A 
ATOM      4  C   UNL     1     143.636 141.135  94.556  1.00  0.00     0.054 A 
ATOM      5  C   UNL     1     142.605 140.229  94.502  1.00  0.00     0.058 A 
ATOM      6  C   UNL     1     141.451 140.440  95.263  1.00  0.00     0.022 A 
ATOM      7  C   UNL     1     141.341 141.577  96.082  1.00  0.00     0.002 A 
ATOM      8  C   UNL     1     142.387 142.499  96.138  1.00  0.00     0.010 A 
ATOM      9  S   UNL     1     145.276 141.309  93.792  1.00  0.00    -0.128 S 
ATOM     10  Cl  UNL     1     142.737 138.785  93.464  1.00  0.00    -0.083 Cl
ENDROOT
BRANCH   1  11
ATOM     11  C   UNL     1     147.018 143.606  94.396  1.00  0.00     0.261 C 
ATOM     12  N   UNL     1     147.000 144.930  93.805  1.00  0.00    -0.347 N 
ATOM     13  O   UNL     1     148.044 143.135  94.754  1.00  0.00    -0.268 OA
ATOM     14  H   UNL     1     146.152 145.327  93.503  1.00  0.00     0.164 HD
BRANCH  12  15
ATOM     15  C   UNL     1     148.269 145.680  93.659  1.00  0.00     0.099 C 
ATOM     16  C   UNL     1     148.544 146.439  94.875  1.00  0.00     0.015 C 
ATOM     17  C   UNL     1     148.161 146.673  92.485  1.00  0.00     0.109 C 
ATOM     18  C   UNL     1     149.754 147.189  94.683  1.00  0.00     0.021 C 
ATOM     19  C   UNL     1     147.447 147.381  95.086  1.00  0.00     0.021 C 
ATOM     20  N   UNL     1     148.382 147.985  92.911  1.00  0.00    -0.301 NA
ATOM     21  C   UNL     1     149.625 148.096  93.496  1.00  0.00     0.085 C 
ATOM     22  C   UNL     1     147.388 148.356  93.849  1.00  0.00     0.085 C 
ENDBRANCH  12  15
ENDBRANCH   1  11
TORSDOF 2
ENDMDL
MODEL 14
REMARK VINA RESULT:    -5.139      5.564      8.042
REMARK INTER + INTRA:          -6.048
REMARK INTER:                  -5.719
REMARK INTRA:                  -0.329
REMARK UNBOUND:                -0.308
REMARK SMILES O=C(N[C@H]1CN2CCC1CC2)c1cc2cccc(Cl)c2s1
REMARK SMILES IDX 12 1 13 2 14 3 20 4 18 5 17 6 16 7 15 8 21 9 19 10 2 11 3 12
REMARK SMILES IDX 1 13 4 15 9 16 5 17 8 18 10 19 6 20 7 21 11 22
REMARK H PARENT 3 14
ROOT
ATOM      1  C   UNL     1     141.558 140.109  89.095  1.00  0.00     0.093 A 
ATOM      2  C   UNL     1     142.868 139.782  89.185  1.00  0.00     0.034 A 
ATOM      3  C   UNL     1     143.495 139.730  90.475  1.00  0.00    -0.005 A 
ATOM      4  C   UNL     1     142.599 140.046  91.555  1.00  0.00     0.054 A 
ATOM      5  C   UNL     1     143.061 140.034  92.849  1.00  0.00     0.058 A 
ATOM      6  C   UNL     1     144.398 139.716  93.108  1.00  0.00     0.022 A 
ATOM      7  C   UNL     1     145.270 139.409  92.051  1.00  0.00     0.002 A 
ATOM      8  C   UNL     1     144.804 139.420  90.736  1.00  0.00     0.010 A 
ATOM      9  S   UNL     1     141.016 140.381  90.726  1.00  0.00    -0.128 S 
ATOM     10  Cl  UNL     1     141.959 140.425  94.195  1.00  0.00    -0.083 Cl
ENDROOT
BRANCH   1  11
ATOM     11  C   UNL     1     140.747 140.210  87.798  1.00  0.00     0.261 C 
ATOM     12  N   UNL     1     141.093 139.400  86.647  1.00  0.00    -0.347 N 
ATOM     13  O   UNL     1     139.832 140.960  87.737  1.00  0.00    -0.268 OA
ATOM     14  H   UNL     1     141.853 138.776  86.689  1.00  0.00     0.164 HD
BRANCH  12  15
ATOM     15  C   UNL     1     140.293 139.517  85.406  1.00  0.00     0.099 C 
ATOM     16  C   UNL     1     139.569 138.274  85.159  1.00  0.00     0.015 C 
ATOM     17  C   UNL     1     141.222 139.781  84.205  1.00  0.00     0.109 C 
ATOM     18  C   UNL     1     138.841 138.405  83.928  1.00  0.00     0.021 C 
ATOM     19  C   UNL     1     140.544 137.197  85.005  1.00  0.00     0.021 C 
ATOM     20  N   UNL     1     141.083 138.789  83.231  1.00  0.00    -0.301 NA
ATOM     21  C   UNL     1     139.776 138.721  82.798  1.00  0.00     0.085 C 
ATOM     22  C   UNL     1     141.462 137.535  83.770  1.00  0.00     0.085 C 
ENDBRANCH  12  15
ENDBRANCH   1  11
TORSDOF 2
ENDMDL
MODEL 15
REMARK VINA RESULT:    -5.121      5.722      6.820
REMARK INTER + INTRA:          -6.028
REMARK INTER:                  -5.731
REMARK INTRA:                  -0.298
REMARK UNBOUND:                -0.308
REMARK SMILES O=C(N[C@H]1CN2CCC1CC2)c1cc2cccc(Cl)c2s1
REMARK SMILES IDX 12 1 13 2 14 3 20 4 18 5 17 6 16 7 15 8 21 9 19 10 2 11 3 12
REMARK SMILES IDX 1 13 4 15 9 16 5 17 8 18 10 19 6 20 7 21 11 22
REMARK H PARENT 3 14
ROOT
ATOM      1  C   UNL     1     143.705 143.606  97.178  1.00  0.00     0.093 A 
ATOM      2  C   UNL     1     143.703 142.597  96.277  1.00  0.00     0.034 A 
ATOM      3  C   UNL     1     142.506 141.831  96.077  1.00  0.00    -0.005 A 
ATOM      4  C   UNL     1     141.411 142.265  96.902  1.00  0.00     0.054 A 
ATOM      5  C   UNL     1     140.198 141.623  96.817  1.00  0.00     0.058 A 
ATOM      6  C   UNL     1     140.037 140.555  95.930  1.00  0.00     0.022 A 
ATOM      7  C   UNL     1     141.110 140.134  95.126  1.00  0.00     0.002 A 
ATOM      8  C   UNL     1     142.342 140.783  95.210  1.00  0.00     0.010 A 
ATOM      9  S   UNL     1     142.103 143.648  97.858  1.00  0.00    -0.128 S 
ATOM     10  Cl  UNL     1     138.834 142.152  97.836  1.00  0.00    -0.083 Cl
ENDROOT
BRANCH   1  11
ATOM     11  C   UNL     1     144.897 144.512  97.508  1.00  0.00     0.261 C 
ATOM     12  N   UNL     1     146.024 144.607  96.600  1.00  0.00    -0.347 N 
ATOM     13  O   UNL     1     144.898 145.136  98.514  1.00  0.00    -0.268 OA
ATOM     14  H   UNL     1     146.033 144.089  95.763  1.00  0.00     0.164 HD
BRANCH  12  15
ATOM     15  C   UNL     1     147.163 145.489  96.943  1.00  0.00     0.099 C 
ATOM     16  C   UNL     1     146.947 146.822  96.390  1.00  0.00     0.015 C 
ATOM     17  C   UNL     1     148.465 144.923  96.343  1.00  0.00     0.109 C 
ATOM     18  C   UNL     1     148.088 147.637  96.701  1.00  0.00     0.021 C 
ATOM     19  C   UNL     1     146.846 146.706  94.937  1.00  0.00     0.021 C 
ATOM     20  N   UNL     1     149.067 145.844  95.482  1.00  0.00    -0.301 NA
ATOM     21  C   UNL     1     149.339 147.018  96.150  1.00  0.00     0.085 C 
ATOM     22  C   UNL     1     148.202 146.115  94.393  1.00  0.00     0.085 C 
ENDBRANCH  12  15
ENDBRANCH   1  11
TORSDOF 2
ENDMDL
MODEL 16
REMARK VINA RESULT:    -5.038      5.254      7.507
REMARK INTER + INTRA:          -5.935
REMARK INTER:                  -5.633
REMARK INTRA:                  -0.303
REMARK UNBOUND:                -0.308
REMARK SMILES O=C(N[C@H]1CN2CCC1CC2)c1cc2cccc(Cl)c2s1
REMARK SMILES IDX 12 1 13 2 14 3 20 4 18 5 17 6 16 7 15 8 21 9 19 10 2 11 3 12
REMARK SMILES IDX 1 13 4 15 9 16 5 17 8 18 10 19 6 20 7 21 11 22
REMARK H PARENT 3 14
ROOT
ATOM      1  C   UNL     1     146.404 138.719  91.224  1.00  0.00     0.093 A 
ATOM      2  C   UNL     1     146.121 138.902  92.534  1.00  0.00     0.034 A 
ATOM      3  C   UNL     1     144.806 139.330  92.919  1.00  0.00    -0.005 A 
ATOM      4  C   UNL     1     143.920 139.515  91.802  1.00  0.00     0.054 A 
ATOM      5  C   UNL     1     142.626 139.923  92.019  1.00  0.00     0.058 A 
ATOM      6  C   UNL     1     142.179 140.156  93.323  1.00  0.00     0.022 A 
ATOM      7  C   UNL     1     143.049 139.976  94.412  1.00  0.00     0.002 A 
ATOM      8  C   UNL     1     144.363 139.562  94.194  1.00  0.00     0.010 A 
ATOM      9  S   UNL     1     144.942 139.096  90.358  1.00  0.00    -0.128 S 
ATOM     10  Cl  UNL     1     141.518 140.156  90.641  1.00  0.00    -0.083 Cl
ENDROOT
BRANCH   1  11
ATOM     11  C   UNL     1     147.753 138.268  90.653  1.00  0.00     0.261 C 
ATOM     12  N   UNL     1     148.736 137.624  91.503  1.00  0.00    -0.347 N 
ATOM     13  O   UNL     1     147.995 138.450  89.508  1.00  0.00    -0.268 OA
ATOM     14  H   UNL     1     148.543 137.471  92.456  1.00  0.00     0.164 HD
BRANCH  12  15
ATOM     15  C   UNL     1     150.031 137.198  90.926  1.00  0.00     0.099 C 
ATOM     16  C   UNL     1     150.515 136.003  91.610  1.00  0.00     0.015 C 
ATOM     17  C   UNL     1     151.079 138.314  91.108  1.00  0.00     0.109 C 
ATOM     18  C   UNL     1     151.792 135.645  91.058  1.00  0.00     0.021 C 
ATOM     19  C   UNL     1     150.697 136.323  93.023  1.00  0.00     0.021 C 
ATOM     20  N   UNL     1     152.182 137.859  91.835  1.00  0.00    -0.301 NA
ATOM     21  C   UNL     1     152.761 136.780  91.203  1.00  0.00     0.085 C 
ATOM     22  C   UNL     1     151.770 137.473  93.134  1.00  0.00     0.085 C 
ENDBRANCH  12  15
ENDBRANCH   1  11
TORSDOF 2
ENDMDL
MODEL 17
REMARK VINA RESULT:    -4.965      6.563     11.080
REMARK INTER + INTRA:          -5.853
REMARK INTER:                  -5.550
REMARK INTRA:                  -0.303
REMARK UNBOUND:                -0.308
REMARK SMILES O=C(N[C@H]1CN2CCC1CC2)c1cc2cccc(Cl)c2s1
REMARK SMILES IDX 12 1 13 2 14 3 20 4 18 5 17 6 16 7 15 8 21 9 19 10 2 11 3 12
REMARK SMILES IDX 1 13 4 15 9 16 5 17 8 18 10 19 6 20 7 21 11 22
REMARK H PARENT 3 14
ROOT
ATOM      1  C   UNL     1     149.153 138.328  90.088  1.00  0.00     0.093 A 
ATOM      2  C   UNL     1     150.374 138.875  90.286  1.00  0.00     0.034 A 
ATOM      3  C   UNL     1     151.305 138.937  89.196  1.00  0.00    -0.005 A 
ATOM      4  C   UNL     1     150.785 138.384  87.974  1.00  0.00     0.054 A 
ATOM      5  C   UNL     1     151.566 138.377  86.843  1.00  0.00     0.058 A 
ATOM      6  C   UNL     1     152.859 138.908  86.887  1.00  0.00     0.022 A 
ATOM      7  C   UNL     1     153.364 139.447  88.082  1.00  0.00     0.002 A 
ATOM      8  C   UNL     1     152.573 139.455  89.232  1.00  0.00     0.010 A 
ATOM      9  S   UNL     1     149.110 137.838  88.419  1.00  0.00    -0.128 S 
ATOM     10  Cl  UNL     1     150.933 137.692  85.323  1.00  0.00    -0.083 Cl
ENDROOT
BRANCH   1  11
ATOM     11  C   UNL     1     148.052 138.185  91.146  1.00  0.00     0.261 C 
ATOM     12  N   UNL     1     146.694 138.600  90.857  1.00  0.00    -0.347 N 
ATOM     13  O   UNL     1     148.316 137.733  92.208  1.00  0.00    -0.268 OA
ATOM     14  H   UNL     1     146.467 138.979  89.977  1.00  0.00     0.164 HD
BRANCH  12  15
ATOM     15  C   UNL     1     145.650 138.451  91.896  1.00  0.00     0.099 C 
ATOM     16  C   UNL     1     144.375 138.099  91.278  1.00  0.00     0.015 C 
ATOM     17  C   UNL     1     145.467 139.783  92.651  1.00  0.00     0.109 C 
ATOM     18  C   UNL     1     143.377 138.008  92.307  1.00  0.00     0.021 C 
ATOM     19  C   UNL     1     143.996 139.172  90.362  1.00  0.00     0.021 C 
ATOM     20  N   UNL     1     144.151 140.243  92.554  1.00  0.00    -0.301 NA
ATOM     21  C   UNL     1     143.276 139.304  93.055  1.00  0.00     0.085 C 
ATOM     22  C   UNL     1     143.836 140.500  91.197  1.00  0.00     0.085 C 
ENDBRANCH  12  15
ENDBRANCH   1  11
TORSDOF 2
ENDMDL
MODEL 18
REMARK VINA RESULT:    -4.896     10.763     11.424
REMARK INTER + INTRA:          -5.777
REMARK INTER:                  -5.476
REMARK INTRA:                  -0.301
REMARK UNBOUND:                -0.308
REMARK SMILES O=C(N[C@H]1CN2CCC1CC2)c1cc2cccc(Cl)c2s1
REMARK SMILES IDX 12 1 13 2 14 3 20 4 18 5 17 6 16 7 15 8 21 9 19 10 2 11 3 12
REMARK SMILES IDX 1 13 4 15 9 16 5 17 8 18 10 19 6 20 7 21 11 22
REMARK H PARENT 3 14
ROOT
ATOM      1  C   UNL     1     151.324 137.085  90.019  1.00  0.00     0.093 A 
ATOM      2  C   UNL     1     151.151 138.382  90.363  1.00  0.00     0.034 A 
ATOM      3  C   UNL     1     151.471 138.807  91.696  1.00  0.00    -0.005 A 
ATOM      4  C   UNL     1     151.961 137.742  92.529  1.00  0.00     0.054 A 
ATOM      5  C   UNL     1     152.309 138.002  93.833  1.00  0.00     0.058 A 
ATOM      6  C   UNL     1     152.186 139.299  94.341  1.00  0.00     0.022 A 
ATOM      7  C   UNL     1     151.706 140.337  93.524  1.00  0.00     0.002 A 
ATOM      8  C   UNL     1     151.351 140.075  92.200  1.00  0.00     0.010 A 
ATOM      9  S   UNL     1     151.938 136.288  91.439  1.00  0.00    -0.128 S 
ATOM     10  Cl  UNL     1     152.917 136.689  94.875  1.00  0.00    -0.083 Cl
ENDROOT
BRANCH   1  11
ATOM     11  C   UNL     1     151.028 136.475  88.644  1.00  0.00     0.261 C 
ATOM     12  N   UNL     1     149.688 136.037  88.304  1.00  0.00    -0.347 N 
ATOM     13  O   UNL     1     151.903 136.359  87.854  1.00  0.00    -0.268 OA
ATOM     14  H   UNL     1     148.956 136.128  88.956  1.00  0.00     0.164 HD
BRANCH  12  15
ATOM     15  C   UNL     1     149.430 135.451  86.969  1.00  0.00     0.099 C 
ATOM     16  C   UNL     1     149.006 136.494  86.039  1.00  0.00     0.015 C 
ATOM     17  C   UNL     1     148.304 134.403  87.064  1.00  0.00     0.109 C 
ATOM     18  C   UNL     1     148.720 135.886  84.769  1.00  0.00     0.021 C 
ATOM     19  C   UNL     1     147.776 137.093  86.550  1.00  0.00     0.021 C 
ATOM     20  N   UNL     1     147.235 134.732  86.225  1.00  0.00    -0.301 NA
ATOM     21  C   UNL     1     147.663 134.832  84.920  1.00  0.00     0.085 C 
ATOM     22  C   UNL     1     146.675 135.968  86.630  1.00  0.00     0.085 C 
ENDBRANCH  12  15
ENDBRANCH   1  11
TORSDOF 2
ENDMDL
MODEL 19
REMARK VINA RESULT:    -4.869     10.572     11.086
REMARK INTER + INTRA:          -5.746
REMARK INTER:                  -5.434
REMARK INTRA:                  -0.313
REMARK UNBOUND:                -0.308
REMARK SMILES O=C(N[C@H]1CN2CCC1CC2)c1cc2cccc(Cl)c2s1
REMARK SMILES IDX 12 1 13 2 14 3 20 4 18 5 17 6 16 7 15 8 21 9 19 10 2 11 3 12
REMARK SMILES IDX 1 13 4 15 9 16 5 17 8 18 10 19 6 20 7 21 11 22
REMARK H PARENT 3 14
ROOT
ATOM      1  C   UNL     1     150.643 137.129  90.764  1.00  0.00     0.093 A 
ATOM      2  C   UNL     1     151.198 136.694  91.919  1.00  0.00     0.034 A 
ATOM      3  C   UNL     1     151.700 137.650  92.864  1.00  0.00    -0.005 A 
ATOM      4  C   UNL     1     151.535 139.013  92.436  1.00  0.00     0.054 A 
ATOM      5  C   UNL     1     151.969 140.038  93.242  1.00  0.00     0.058 A 
ATOM      6  C   UNL     1     152.568 139.751  94.472  1.00  0.00     0.022 A 
ATOM      7  C   UNL     1     152.728 138.417  94.887  1.00  0.00     0.002 A 
ATOM      8  C   UNL     1     152.288 137.375  94.071  1.00  0.00     0.010 A 
ATOM      9  S   UNL     1     150.728 138.867  90.813  1.00  0.00    -0.128 S 
ATOM     10  Cl  UNL     1     151.770 141.731  92.720  1.00  0.00    -0.083 Cl
ENDROOT
BRANCH   1  11
ATOM     11  C   UNL     1     150.065 136.241  89.657  1.00  0.00     0.261 C 
ATOM     12  N   UNL     1     149.571 136.825  88.425  1.00  0.00    -0.347 N 
ATOM     13  O   UNL     1     150.021 135.067  89.811  1.00  0.00    -0.268 OA
ATOM     14  H   UNL     1     149.602 137.799  88.291  1.00  0.00     0.164 HD
BRANCH  12  15
ATOM     15  C   UNL     1     149.018 135.943  87.372  1.00  0.00     0.099 C 
ATOM     16  C   UNL     1     149.968 135.823  86.270  1.00  0.00     0.015 C 
ATOM     17  C   UNL     1     147.711 136.544  86.817  1.00  0.00     0.109 C 
ATOM     18  C   UNL     1     149.383 135.001  85.248  1.00  0.00     0.021 C 
ATOM     19  C   UNL     1     150.199 137.154  85.715  1.00  0.00     0.021 C 
ATOM     20  N   UNL     1     147.801 136.767  85.440  1.00  0.00    -0.301 NA
ATOM     21  C   UNL     1     148.085 135.591  84.781  1.00  0.00     0.085 C 
ATOM     22  C   UNL     1     148.826 137.710  85.177  1.00  0.00     0.085 C 
ENDBRANCH  12  15
ENDBRANCH   1  11
TORSDOF 2
ENDMDL
MODEL 20
REMARK VINA RESULT:    -4.783      6.013      7.421
REMARK INTER + INTRA:          -5.650
REMARK INTER:                  -5.884
REMARK INTRA:                   0.234
REMARK UNBOUND:                -0.308
REMARK SMILES O=C(N[C@H]1CN2CCC1CC2)c1cc2cccc(Cl)c2s1
REMARK SMILES IDX 12 1 13 2 14 3 20 4 18 5 17 6 16 7 15 8 21 9 19 10 2 11 3 12
REMARK SMILES IDX 1 13 4 15 9 16 5 17 8 18 10 19 6 20 7 21 11 22
REMARK H PARENT 3 14
ROOT
ATOM      1  C   UNL     1     145.193 143.095  94.951  1.00  0.00     0.093 A 
ATOM      2  C   UNL     1     144.966 141.931  94.298  1.00  0.00     0.034 A 
ATOM      3  C   UNL     1     143.795 141.163  94.611  1.00  0.00    -0.005 A 
ATOM      4  C   UNL     1     142.975 141.767  95.627  1.00  0.00     0.054 A 
ATOM      5  C   UNL     1     141.818 141.143  96.029  1.00  0.00     0.058 A 
ATOM      6  C   UNL     1     141.445 139.927  95.448  1.00  0.00     0.022 A 
ATOM      7  C   UNL     1     142.249 139.340  94.456  1.00  0.00     0.002 A 
ATOM      8  C   UNL     1     143.424 139.972  94.046  1.00  0.00     0.010 A 
ATOM      9  S   UNL     1     143.863 143.295  96.055  1.00  0.00    -0.128 S 
ATOM     10  Cl  UNL     1     140.796 141.882  97.289  1.00  0.00    -0.083 Cl
ENDROOT
BRANCH   1  11
ATOM     11  C   UNL     1     146.392 144.025  94.734  1.00  0.00     0.261 C 
ATOM     12  N   UNL     1     146.819 144.933  95.781  1.00  0.00    -0.347 N 
ATOM     13  O   UNL     1     146.972 144.002  93.702  1.00  0.00    -0.268 OA
ATOM     14  H   UNL     1     146.340 144.960  96.640  1.00  0.00     0.164 HD
BRANCH  12  15
ATOM     15  C   UNL     1     147.980 145.821  95.545  1.00  0.00     0.099 C 
ATOM     16  C   UNL     1     148.122 146.763  96.652  1.00  0.00     0.015 C 
ATOM     17  C   UNL     1     147.770 146.629  94.249  1.00  0.00     0.109 C 
ATOM     18  C   UNL     1     149.226 147.637  96.370  1.00  0.00     0.021 C 
ATOM     19  C   UNL     1     146.905 147.568  96.728  1.00  0.00     0.021 C 
ATOM     20  N   UNL     1     147.805 148.003  94.498  1.00  0.00    -0.301 NA
ATOM     21  C   UNL     1     149.007 148.356  95.072  1.00  0.00     0.085 C 
ATOM     22  C   UNL     1     146.748 148.356  95.372  1.00  0.00     0.085 C 
ENDBRANCH  12  15
ENDBRANCH   1  11
TORSDOF 2
ENDMDL
