MODEL 1
REMARK VINA RESULT:    -6.381      0.000      0.000
REMARK INTER + INTRA:         -10.282
REMARK INTER:                  -8.619
REMARK INTRA:                  -1.663
REMARK UNBOUND:                -1.663
REMARK SMILES COC(=O)C1=C(C)NC(C)=C(C(=O)OC(C)C)[C@@H]1c1cccc2nonc12
REMARK SMILES IDX 7 1 6 2 5 3 18 4 11 5 9 6 8 7 10 8 3 10 4 11 2 12 1 13 19 14
REMARK SMILES IDX 20 15 27 16 21 17 26 18 23 19 22 20 25 21 24 22 12 23 13 24
REMARK SMILES IDX 14 25 15 26 16 27 17 28
REMARK H PARENT 8 9
ROOT
ATOM      1  C   UNL     1     153.018 160.366 143.944  1.00  0.00     0.065 C 
ATOM      2  C   UNL     1     151.955 160.686 144.964  1.00  0.00     0.023 C 
ATOM      3  C   UNL     1     152.182 161.309 146.143  1.00  0.00     0.068 C 
ATOM      4  C   UNL     1     151.047 161.588 147.124  1.00  0.00     0.100 C 
ATOM      5  C   UNL     1     149.706 161.030 146.665  1.00  0.00     0.068 C 
ATOM      6  C   UNL     1     149.569 160.403 145.476  1.00  0.00     0.023 C 
ATOM      7  N   UNL     1     150.672 160.263 144.649  1.00  0.00    -0.362 N 
ATOM      8  C   UNL     1     148.291 159.781 144.975  1.00  0.00     0.065 C 
ATOM      9  H   UNL     1     150.529 159.834 143.738  1.00  0.00     0.166 HD
ENDROOT
BRANCH   3  10
ATOM     10  C   UNL     1     153.535 161.776 146.520  1.00  0.00     0.336 C 
ATOM     11  O   UNL     1     154.101 162.745 146.038  1.00  0.00    -0.246 OA
BRANCH  10  12
ATOM     12  O   UNL     1     154.042 160.958 147.480  1.00  0.00    -0.466 OA
ATOM     13  C   UNL     1     154.729 161.650 148.522  1.00  0.00     0.282 C 
ENDBRANCH  10  12
ENDBRANCH   3  10
BRANCH   4  14
ATOM     14  C   UNL     1     150.942 163.072 147.450  1.00  0.00    -0.004 A 
ATOM     15  C   UNL     1     150.528 164.012 146.467  1.00  0.00     0.007 A 
ATOM     16  C   UNL     1     151.242 163.671 148.700  1.00  0.00     0.139 A 
ATOM     17  C   UNL     1     150.414 165.409 146.698  1.00  0.00     0.003 A 
ATOM     18  N   UNL     1     151.668 163.107 149.838  1.00  0.00    -0.049 NA
ATOM     19  C   UNL     1     151.126 165.107 148.932  1.00  0.00     0.135 A 
ATOM     20  C   UNL     1     150.706 166.006 147.936  1.00  0.00     0.034 A 
ATOM     21  O   UNL     1     151.807 164.136 150.749  1.00  0.00    -0.243 OA
ATOM     22  N   UNL     1     151.480 165.362 150.197  1.00  0.00    -0.050 NA
ENDBRANCH   4  14
BRANCH   5  23
ATOM     23  C   UNL     1     148.601 161.204 147.631  1.00  0.00     0.337 C 
ATOM     24  O   UNL     1     147.719 162.038 147.493  1.00  0.00    -0.246 OA
BRANCH  23  25
ATOM     25  O   UNL     1     148.673 160.256 148.596  1.00  0.00    -0.460 OA
BRANCH  25  26
ATOM     26  C   UNL     1     147.886 160.492 149.776  1.00  0.00     0.170 C 
ATOM     27  C   UNL     1     147.451 159.130 150.303  1.00  0.00     0.052 C 
ATOM     28  C   UNL     1     148.728 161.230 150.810  1.00  0.00     0.052 C 
ENDBRANCH  25  26
ENDBRANCH  23  25
ENDBRANCH   5  23
TORSDOF 6
ENDMDL
MODEL 2
REMARK VINA RESULT:    -6.365      2.100      5.187
REMARK INTER + INTRA:         -10.261
REMARK INTER:                  -8.805
REMARK INTRA:                  -1.456
REMARK UNBOUND:                -1.663
REMARK SMILES COC(=O)C1=C(C)NC(C)=C(C(=O)OC(C)C)[C@@H]1c1cccc2nonc12
REMARK SMILES IDX 7 1 6 2 5 3 18 4 11 5 9 6 8 7 10 8 3 10 4 11 2 12 1 13 19 14
REMARK SMILES IDX 20 15 27 16 21 17 26 18 23 19 22 20 25 21 24 22 12 23 13 24
REMARK SMILES IDX 14 25 15 26 16 27 17 28
REMARK H PARENT 8 9
ROOT
ATOM      1  C   UNL     1     151.879 160.278 152.225  1.00  0.00     0.065 C 
ATOM      2  C   UNL     1     152.111 160.714 150.801  1.00  0.00     0.023 C 
ATOM      3  C   UNL     1     151.149 161.174 149.970  1.00  0.00     0.068 C 
ATOM      4  C   UNL     1     151.470 161.587 148.536  1.00  0.00     0.100 C 
ATOM      5  C   UNL     1     152.926 161.352 148.155  1.00  0.00     0.068 C 
ATOM      6  C   UNL     1     153.822 160.870 149.045  1.00  0.00     0.023 C 
ATOM      7  N   UNL     1     153.412 160.585 150.337  1.00  0.00    -0.362 N 
ATOM      8  C   UNL     1     155.263 160.562 148.730  1.00  0.00     0.065 C 
ATOM      9  H   UNL     1     154.119 160.274 150.999  1.00  0.00     0.166 HD
ENDROOT
BRANCH   3  10
ATOM     10  C   UNL     1     149.748 161.327 150.423  1.00  0.00     0.336 C 
ATOM     11  O   UNL     1     149.353 162.180 151.201  1.00  0.00    -0.246 OA
BRANCH  10  12
ATOM     12  O   UNL     1     148.979 160.371 149.838  1.00  0.00    -0.466 OA
ATOM     13  C   UNL     1     147.867 160.891 149.110  1.00  0.00     0.282 C 
ENDBRANCH  10  12
ENDBRANCH   3  10
BRANCH   4  14
ATOM     14  C   UNL     1     151.058 163.029 148.265  1.00  0.00    -0.004 A 
ATOM     15  C   UNL     1     150.134 163.346 147.231  1.00  0.00     0.007 A 
ATOM     16  C   UNL     1     151.530 164.172 148.958  1.00  0.00     0.139 A 
ATOM     17  C   UNL     1     149.712 164.665 146.918  1.00  0.00     0.003 A 
ATOM     18  N   UNL     1     152.406 164.258 149.968  1.00  0.00    -0.049 NA
ATOM     19  C   UNL     1     151.095 165.526 148.631  1.00  0.00     0.135 A 
ATOM     20  C   UNL     1     150.173 165.800 147.605  1.00  0.00     0.034 A 
ATOM     21  O   UNL     1     152.514 165.601 150.271  1.00  0.00    -0.243 OA
ATOM     22  N   UNL     1     151.716 166.381 149.452  1.00  0.00    -0.050 NA
ENDBRANCH   4  14
BRANCH   5  23
ATOM     23  C   UNL     1     153.253 161.658 146.747  1.00  0.00     0.337 C 
ATOM     24  O   UNL     1     153.960 162.597 146.416  1.00  0.00    -0.246 OA
BRANCH  23  25
ATOM     25  O   UNL     1     152.743 160.703 145.933  1.00  0.00    -0.460 OA
BRANCH  25  26
ATOM     26  C   UNL     1     153.388 160.547 144.657  1.00  0.00     0.170 C 
ATOM     27  C   UNL     1     154.395 159.412 144.800  1.00  0.00     0.052 C 
ATOM     28  C   UNL     1     152.345 160.216 143.596  1.00  0.00     0.052 C 
ENDBRANCH  25  26
ENDBRANCH  23  25
ENDBRANCH   5  23
TORSDOF 6
ENDMDL
MODEL 3
REMARK VINA RESULT:    -6.341      4.850      6.672
REMARK INTER + INTRA:         -10.228
REMARK INTER:                  -8.711
REMARK INTRA:                  -1.517
REMARK UNBOUND:                -1.663
REMARK SMILES COC(=O)C1=C(C)NC(C)=C(C(=O)OC(C)C)[C@@H]1c1cccc2nonc12
REMARK SMILES IDX 7 1 6 2 5 3 18 4 11 5 9 6 8 7 10 8 3 10 4 11 2 12 1 13 19 14
REMARK SMILES IDX 20 15 27 16 21 17 26 18 23 19 22 20 25 21 24 22 12 23 13 24
REMARK SMILES IDX 14 25 15 26 16 27 17 28
REMARK H PARENT 8 9
ROOT
ATOM      1  C   UNL     1     153.100 153.794 152.740  1.00  0.00     0.065 C 
ATOM      2  C   UNL     1     152.476 154.958 152.011  1.00  0.00     0.023 C 
ATOM      3  C   UNL     1     153.109 156.121 151.733  1.00  0.00     0.068 C 
ATOM      4  C   UNL     1     152.399 157.253 150.997  1.00  0.00     0.100 C 
ATOM      5  C   UNL     1     150.935 156.952 150.701  1.00  0.00     0.068 C 
ATOM      6  C   UNL     1     150.375 155.767 151.030  1.00  0.00     0.023 C 
ATOM      7  N   UNL     1     151.147 154.798 151.649  1.00  0.00    -0.362 N 
ATOM      8  C   UNL     1     148.925 155.415 150.817  1.00  0.00     0.065 C 
ATOM      9  H   UNL     1     150.713 153.897 151.837  1.00  0.00     0.166 HD
ENDROOT
BRANCH   3  10
ATOM     10  C   UNL     1     154.526 156.334 152.103  1.00  0.00     0.336 C 
ATOM     11  O   UNL     1     155.469 155.698 151.659  1.00  0.00    -0.246 OA
BRANCH  10  12
ATOM     12  O   UNL     1     154.608 157.343 153.009  1.00  0.00    -0.466 OA
ATOM     13  C   UNL     1     155.642 158.286 152.730  1.00  0.00     0.282 C 
ENDBRANCH  10  12
ENDBRANCH   3  10
BRANCH   4  14
ATOM     14  C   UNL     1     153.145 157.649 149.730  1.00  0.00    -0.004 A 
ATOM     15  C   UNL     1     153.312 156.730 148.657  1.00  0.00     0.007 A 
ATOM     16  C   UNL     1     153.747 158.908 149.479  1.00  0.00     0.139 A 
ATOM     17  C   UNL     1     154.000 157.028 147.452  1.00  0.00     0.003 A 
ATOM     18  N   UNL     1     153.803 159.998 150.257  1.00  0.00    -0.049 NA
ATOM     19  C   UNL     1     154.455 159.210 148.240  1.00  0.00     0.135 A 
ATOM     20  C   UNL     1     154.594 158.275 147.198  1.00  0.00     0.034 A 
ATOM     21  O   UNL     1     154.506 160.947 149.539  1.00  0.00    -0.243 OA
ATOM     22  N   UNL     1     154.911 160.466 148.306  1.00  0.00    -0.050 NA
ENDBRANCH   4  14
BRANCH   5  23
ATOM     23  C   UNL     1     150.192 158.062 150.067  1.00  0.00     0.337 C 
ATOM     24  O   UNL     1     149.997 158.132 148.864  1.00  0.00    -0.246 OA
BRANCH  23  25
ATOM     25  O   UNL     1     149.701 158.894 151.016  1.00  0.00    -0.460 OA
BRANCH  25  26
ATOM     26  C   UNL     1     148.554 159.677 150.641  1.00  0.00     0.170 C 
ATOM     27  C   UNL     1     147.324 158.809 150.874  1.00  0.00     0.052 C 
ATOM     28  C   UNL     1     148.498 160.939 151.493  1.00  0.00     0.052 C 
ENDBRANCH  25  26
ENDBRANCH  23  25
ENDBRANCH   5  23
TORSDOF 6
ENDMDL
MODEL 4
REMARK VINA RESULT:    -6.310      8.659     12.411
REMARK INTER + INTRA:         -10.187
REMARK INTER:                  -8.761
REMARK INTRA:                  -1.426
REMARK UNBOUND:                -1.663
REMARK SMILES COC(=O)C1=C(C)NC(C)=C(C(=O)OC(C)C)[C@@H]1c1cccc2nonc12
REMARK SMILES IDX 7 1 6 2 5 3 18 4 11 5 9 6 8 7 10 8 3 10 4 11 2 12 1 13 19 14
REMARK SMILES IDX 20 15 27 16 21 17 26 18 23 19 22 20 25 21 24 22 12 23 13 24
REMARK SMILES IDX 14 25 15 26 16 27 17 28
REMARK H PARENT 8 9
ROOT
ATOM      1  C   UNL     1     151.678 174.722 156.200  1.00  0.00     0.065 C 
ATOM      2  C   UNL     1     151.097 173.841 155.123  1.00  0.00     0.023 C 
ATOM      3  C   UNL     1     151.111 172.489 155.143  1.00  0.00     0.068 C 
ATOM      4  C   UNL     1     150.506 171.672 154.005  1.00  0.00     0.100 C 
ATOM      5  C   UNL     1     149.982 172.532 152.862  1.00  0.00     0.068 C 
ATOM      6  C   UNL     1     150.022 173.882 152.914  1.00  0.00     0.023 C 
ATOM      7  N   UNL     1     150.549 174.504 154.034  1.00  0.00    -0.362 N 
ATOM      8  C   UNL     1     149.572 174.797 151.805  1.00  0.00     0.065 C 
ATOM      9  H   UNL     1     150.519 175.520 154.069  1.00  0.00     0.166 HD
ENDROOT
BRANCH   3  10
ATOM     10  C   UNL     1     151.686 171.742 156.284  1.00  0.00     0.336 C 
ATOM     11  O   UNL     1     151.049 171.319 157.236  1.00  0.00    -0.246 OA
BRANCH  10  12
ATOM     12  O   UNL     1     153.026 171.605 156.104  1.00  0.00    -0.466 OA
ATOM     13  C   UNL     1     153.787 171.758 157.301  1.00  0.00     0.282 C 
ENDBRANCH  10  12
ENDBRANCH   3  10
BRANCH   4  14
ATOM     14  C   UNL     1     149.432 170.718 154.512  1.00  0.00    -0.004 A 
ATOM     15  C   UNL     1     148.203 171.207 155.035  1.00  0.00     0.007 A 
ATOM     16  C   UNL     1     149.523 169.304 154.539  1.00  0.00     0.139 A 
ATOM     17  C   UNL     1     147.163 170.377 155.530  1.00  0.00     0.003 A 
ATOM     18  N   UNL     1     150.524 168.504 154.145  1.00  0.00    -0.049 NA
ATOM     19  C   UNL     1     148.452 168.456 155.050  1.00  0.00     0.135 A 
ATOM     20  C   UNL     1     147.247 168.976 155.555  1.00  0.00     0.034 A 
ATOM     21  O   UNL     1     150.103 167.212 154.389  1.00  0.00    -0.243 OA
ATOM     22  N   UNL     1     148.837 167.178 154.947  1.00  0.00    -0.050 NA
ENDBRANCH   4  14
BRANCH   5  23
ATOM     23  C   UNL     1     149.469 171.772 151.703  1.00  0.00     0.337 C 
ATOM     24  O   UNL     1     148.277 171.626 151.476  1.00  0.00    -0.246 OA
BRANCH  23  25
ATOM     25  O   UNL     1     150.497 171.372 150.917  1.00  0.00    -0.460 OA
BRANCH  25  26
ATOM     26  C   UNL     1     150.210 171.245 149.513  1.00  0.00     0.170 C 
ATOM     27  C   UNL     1     151.231 172.097 148.768  1.00  0.00     0.052 C 
ATOM     28  C   UNL     1     150.320 169.781 149.102  1.00  0.00     0.052 C 
ENDBRANCH  25  26
ENDBRANCH  23  25
ENDBRANCH   5  23
TORSDOF 6
ENDMDL
MODEL 5
REMARK VINA RESULT:    -6.307      6.711     10.151
REMARK INTER + INTRA:         -10.182
REMARK INTER:                  -8.900
REMARK INTRA:                  -1.283
REMARK UNBOUND:                -1.663
REMARK SMILES COC(=O)C1=C(C)NC(C)=C(C(=O)OC(C)C)[C@@H]1c1cccc2nonc12
REMARK SMILES IDX 7 1 6 2 5 3 18 4 11 5 9 6 8 7 10 8 3 10 4 11 2 12 1 13 19 14
REMARK SMILES IDX 20 15 27 16 21 17 26 18 23 19 22 20 25 21 24 22 12 23 13 24
REMARK SMILES IDX 14 25 15 26 16 27 17 28
REMARK H PARENT 8 9
ROOT
ATOM      1  C   UNL     1     151.060 165.443 153.338  1.00  0.00     0.065 C 
ATOM      2  C   UNL     1     150.739 166.908 153.488  1.00  0.00     0.023 C 
ATOM      3  C   UNL     1     151.112 167.872 152.616  1.00  0.00     0.068 C 
ATOM      4  C   UNL     1     150.751 169.336 152.849  1.00  0.00     0.100 C 
ATOM      5  C   UNL     1     150.022 169.572 154.166  1.00  0.00     0.068 C 
ATOM      6  C   UNL     1     149.702 168.552 154.992  1.00  0.00     0.023 C 
ATOM      7  N   UNL     1     150.040 167.256 154.635  1.00  0.00    -0.362 N 
ATOM      8  C   UNL     1     149.030 168.709 156.331  1.00  0.00     0.065 C 
ATOM      9  H   UNL     1     149.741 166.503 155.250  1.00  0.00     0.166 HD
ENDROOT
BRANCH   3  10
ATOM     10  C   UNL     1     151.859 167.546 151.380  1.00  0.00     0.336 C 
ATOM     11  O   UNL     1     153.060 167.705 151.226  1.00  0.00    -0.246 OA
BRANCH  10  12
ATOM     12  O   UNL     1     151.001 167.045 150.454  1.00  0.00    -0.466 OA
ATOM     13  C   UNL     1     151.379 167.326 149.107  1.00  0.00     0.282 C 
ENDBRANCH  10  12
ENDBRANCH   3  10
BRANCH   4  14
ATOM     14  C   UNL     1     149.967 169.912 151.677  1.00  0.00    -0.004 A 
ATOM     15  C   UNL     1     148.558 169.740 151.581  1.00  0.00     0.007 A 
ATOM     16  C   UNL     1     150.513 170.637 150.588  1.00  0.00     0.139 A 
ATOM     17  C   UNL     1     147.766 170.242 150.515  1.00  0.00     0.003 A 
ATOM     18  N   UNL     1     151.785 170.975 150.339  1.00  0.00    -0.049 NA
ATOM     19  C   UNL     1     149.695 171.150 149.494  1.00  0.00     0.135 A 
ATOM     20  C   UNL     1     148.302 170.965 149.436  1.00  0.00     0.034 A 
ATOM     21  O   UNL     1     151.772 171.675 149.148  1.00  0.00    -0.243 OA
ATOM     22  N   UNL     1     150.494 171.780 148.626  1.00  0.00    -0.050 NA
ENDBRANCH   4  14
BRANCH   5  23
ATOM     23  C   UNL     1     149.735 170.990 154.467  1.00  0.00     0.337 C 
ATOM     24  O   UNL     1     148.623 171.484 154.356  1.00  0.00    -0.246 OA
BRANCH  23  25
ATOM     25  O   UNL     1     150.842 171.594 154.962  1.00  0.00    -0.460 OA
BRANCH  25  26
ATOM     26  C   UNL     1     150.678 172.300 156.205  1.00  0.00     0.170 C 
ATOM     27  C   UNL     1     151.536 171.586 157.242  1.00  0.00     0.052 C 
ATOM     28  C   UNL     1     151.126 173.746 156.032  1.00  0.00     0.052 C 
ENDBRANCH  25  26
ENDBRANCH  23  25
ENDBRANCH   5  23
TORSDOF 6
ENDMDL
MODEL 6
REMARK VINA RESULT:    -6.288      3.821      6.063
REMARK INTER + INTRA:         -10.157
REMARK INTER:                  -8.309
REMARK INTRA:                  -1.848
REMARK UNBOUND:                -1.663
REMARK SMILES COC(=O)C1=C(C)NC(C)=C(C(=O)OC(C)C)[C@@H]1c1cccc2nonc12
REMARK SMILES IDX 7 1 6 2 5 3 18 4 11 5 9 6 8 7 10 8 3 10 4 11 2 12 1 13 19 14
REMARK SMILES IDX 20 15 27 16 21 17 26 18 23 19 22 20 25 21 24 22 12 23 13 24
REMARK SMILES IDX 14 25 15 26 16 27 17 28
REMARK H PARENT 8 9
ROOT
ATOM      1  C   UNL     1     154.151 159.692 144.834  1.00  0.00     0.065 C 
ATOM      2  C   UNL     1     154.419 159.447 146.297  1.00  0.00     0.023 C 
ATOM      3  C   UNL     1     153.789 160.081 147.312  1.00  0.00     0.068 C 
ATOM      4  C   UNL     1     154.127 159.777 148.769  1.00  0.00     0.100 C 
ATOM      5  C   UNL     1     155.266 158.777 148.925  1.00  0.00     0.068 C 
ATOM      6  C   UNL     1     155.855 158.201 147.853  1.00  0.00     0.023 C 
ATOM      7  N   UNL     1     155.415 158.523 146.579  1.00  0.00    -0.362 N 
ATOM      8  C   UNL     1     157.018 157.245 147.923  1.00  0.00     0.065 C 
ATOM      9  H   UNL     1     155.841 158.036 145.795  1.00  0.00     0.166 HD
ENDROOT
BRANCH   3  10
ATOM     10  C   UNL     1     152.721 161.073 147.056  1.00  0.00     0.336 C 
ATOM     11  O   UNL     1     151.593 160.805 146.674  1.00  0.00    -0.246 OA
BRANCH  10  12
ATOM     12  O   UNL     1     153.196 162.321 147.311  1.00  0.00    -0.466 OA
ATOM     13  C   UNL     1     152.368 163.085 148.186  1.00  0.00     0.282 C 
ENDBRANCH  10  12
ENDBRANCH   3  10
BRANCH   4  14
ATOM     14  C   UNL     1     152.896 159.332 149.548  1.00  0.00    -0.004 A 
ATOM     15  C   UNL     1     152.177 158.161 149.180  1.00  0.00     0.007 A 
ATOM     16  C   UNL     1     152.333 160.001 150.664  1.00  0.00     0.139 A 
ATOM     17  C   UNL     1     151.019 157.693 149.855  1.00  0.00     0.003 A 
ATOM     18  N   UNL     1     152.729 161.126 151.274  1.00  0.00    -0.049 NA
ATOM     19  C   UNL     1     151.143 159.516 151.354  1.00  0.00     0.135 A 
ATOM     20  C   UNL     1     150.461 158.349 150.964  1.00  0.00     0.034 A 
ATOM     21  O   UNL     1     151.834 161.339 152.305  1.00  0.00    -0.243 OA
ATOM     22  N   UNL     1     150.859 160.358 152.354  1.00  0.00    -0.050 NA
ENDBRANCH   4  14
BRANCH   5  23
ATOM     23  C   UNL     1     155.680 158.525 150.321  1.00  0.00     0.337 C 
ATOM     24  O   UNL     1     156.251 159.358 151.008  1.00  0.00    -0.246 OA
BRANCH  23  25
ATOM     25  O   UNL     1     155.248 157.305 150.721  1.00  0.00    -0.460 OA
BRANCH  25  26
ATOM     26  C   UNL     1     155.282 157.054 152.137  1.00  0.00     0.170 C 
ATOM     27  C   UNL     1     153.876 157.301 152.670  1.00  0.00     0.052 C 
ATOM     28  C   UNL     1     155.713 155.614 152.388  1.00  0.00     0.052 C 
ENDBRANCH  25  26
ENDBRANCH  23  25
ENDBRANCH   5  23
TORSDOF 6
ENDMDL
MODEL 7
REMARK VINA RESULT:    -6.276      4.014      6.514
REMARK INTER + INTRA:         -10.140
REMARK INTER:                  -8.313
REMARK INTRA:                  -1.827
REMARK UNBOUND:                -1.663
REMARK SMILES COC(=O)C1=C(C)NC(C)=C(C(=O)OC(C)C)[C@@H]1c1cccc2nonc12
REMARK SMILES IDX 7 1 6 2 5 3 18 4 11 5 9 6 8 7 10 8 3 10 4 11 2 12 1 13 19 14
REMARK SMILES IDX 20 15 27 16 21 17 26 18 23 19 22 20 25 21 24 22 12 23 13 24
REMARK SMILES IDX 14 25 15 26 16 27 17 28
REMARK H PARENT 8 9
ROOT
ATOM      1  C   UNL     1     148.606 156.225 150.191  1.00  0.00     0.065 C 
ATOM      2  C   UNL     1     149.448 157.428 150.532  1.00  0.00     0.023 C 
ATOM      3  C   UNL     1     150.761 157.383 150.854  1.00  0.00     0.068 C 
ATOM      4  C   UNL     1     151.538 158.651 151.195  1.00  0.00     0.100 C 
ATOM      5  C   UNL     1     150.669 159.903 151.205  1.00  0.00     0.068 C 
ATOM      6  C   UNL     1     149.356 159.857 150.888  1.00  0.00     0.023 C 
ATOM      7  N   UNL     1     148.782 158.645 150.541  1.00  0.00    -0.362 N 
ATOM      8  C   UNL     1     148.422 161.039 150.925  1.00  0.00     0.065 C 
ATOM      9  H   UNL     1     147.806 158.648 150.256  1.00  0.00     0.166 HD
ENDROOT
BRANCH   3  10
ATOM     10  C   UNL     1     151.510 156.107 150.858  1.00  0.00     0.336 C 
ATOM     11  O   UNL     1     151.902 155.521 149.861  1.00  0.00    -0.246 OA
BRANCH  10  12
ATOM     12  O   UNL     1     151.689 155.694 152.140  1.00  0.00    -0.466 OA
ATOM     13  C   UNL     1     153.059 155.539 152.510  1.00  0.00     0.282 C 
ENDBRANCH  10  12
ENDBRANCH   3  10
BRANCH   4  14
ATOM     14  C   UNL     1     152.745 158.829 150.283  1.00  0.00    -0.004 A 
ATOM     15  C   UNL     1     152.599 158.871 148.869  1.00  0.00     0.007 A 
ATOM     16  C   UNL     1     154.094 158.953 150.705  1.00  0.00     0.139 A 
ATOM     17  C   UNL     1     153.679 159.026 147.961  1.00  0.00     0.003 A 
ATOM     18  N   UNL     1     154.605 158.944 151.944  1.00  0.00    -0.049 NA
ATOM     19  C   UNL     1     155.200 159.111 149.768  1.00  0.00     0.135 A 
ATOM     20  C   UNL     1     155.015 159.153 148.375  1.00  0.00     0.034 A 
ATOM     21  O   UNL     1     155.970 159.097 151.797  1.00  0.00    -0.243 OA
ATOM     22  N   UNL     1     156.339 159.195 150.466  1.00  0.00    -0.050 NA
ENDBRANCH   4  14
BRANCH   5  23
ATOM     23  C   UNL     1     151.369 161.138 151.617  1.00  0.00     0.337 C 
ATOM     24  O   UNL     1     151.878 161.280 152.719  1.00  0.00    -0.246 OA
BRANCH  23  25
ATOM     25  O   UNL     1     151.435 162.004 150.578  1.00  0.00    -0.460 OA
BRANCH  25  26
ATOM     26  C   UNL     1     152.545 162.919 150.584  1.00  0.00     0.170 C 
ATOM     27  C   UNL     1     153.485 162.490 149.464  1.00  0.00     0.052 C 
ATOM     28  C   UNL     1     152.037 164.337 150.354  1.00  0.00     0.052 C 
ENDBRANCH  25  26
ENDBRANCH  23  25
ENDBRANCH   5  23
TORSDOF 6
ENDMDL
MODEL 8
REMARK VINA RESULT:    -6.224      1.885      2.376
REMARK INTER + INTRA:         -10.071
REMARK INTER:                  -8.592
REMARK INTRA:                  -1.480
REMARK UNBOUND:                -1.663
REMARK SMILES COC(=O)C1=C(C)NC(C)=C(C(=O)OC(C)C)[C@@H]1c1cccc2nonc12
REMARK SMILES IDX 7 1 6 2 5 3 18 4 11 5 9 6 8 7 10 8 3 10 4 11 2 12 1 13 19 14
REMARK SMILES IDX 20 15 27 16 21 17 26 18 23 19 22 20 25 21 24 22 12 23 13 24
REMARK SMILES IDX 14 25 15 26 16 27 17 28
REMARK H PARENT 8 9
ROOT
ATOM      1  C   UNL     1     155.271 161.186 146.085  1.00  0.00     0.065 C 
ATOM      2  C   UNL     1     153.895 161.315 146.687  1.00  0.00     0.023 C 
ATOM      3  C   UNL     1     153.642 161.436 148.010  1.00  0.00     0.068 C 
ATOM      4  C   UNL     1     152.215 161.554 148.537  1.00  0.00     0.100 C 
ATOM      5  C   UNL     1     151.160 161.442 147.443  1.00  0.00     0.068 C 
ATOM      6  C   UNL     1     151.499 161.305 146.142  1.00  0.00     0.023 C 
ATOM      7  N   UNL     1     152.839 161.267 145.789  1.00  0.00    -0.362 N 
ATOM      8  C   UNL     1     150.518 161.137 145.012  1.00  0.00     0.065 C 
ATOM      9  H   UNL     1     153.065 161.215 144.799  1.00  0.00     0.166 HD
ENDROOT
BRANCH   3  10
ATOM     10  C   UNL     1     154.738 161.491 149.002  1.00  0.00     0.336 C 
ATOM     11  O   UNL     1     155.526 162.416 149.125  1.00  0.00    -0.246 OA
BRANCH  10  12
ATOM     12  O   UNL     1     154.728 160.354 149.747  1.00  0.00    -0.466 OA
ATOM     13  C   UNL     1     155.721 159.404 149.361  1.00  0.00     0.282 C 
ENDBRANCH  10  12
ENDBRANCH   3  10
BRANCH   4  14
ATOM     14  C   UNL     1     152.024 162.824 149.355  1.00  0.00    -0.004 A 
ATOM     15  C   UNL     1     151.764 164.072 148.725  1.00  0.00     0.007 A 
ATOM     16  C   UNL     1     152.094 162.920 150.768  1.00  0.00     0.139 A 
ATOM     17  C   UNL     1     151.583 165.295 149.424  1.00  0.00     0.003 A 
ATOM     18  N   UNL     1     152.332 161.966 151.679  1.00  0.00    -0.049 NA
ATOM     19  C   UNL     1     151.910 164.179 151.482  1.00  0.00     0.135 A 
ATOM     20  C   UNL     1     151.647 165.394 150.823  1.00  0.00     0.034 A 
ATOM     21  O   UNL     1     152.292 162.591 152.910  1.00  0.00    -0.243 OA
ATOM     22  N   UNL     1     152.038 163.946 152.793  1.00  0.00    -0.050 NA
ENDBRANCH   4  14
BRANCH   5  23
ATOM     23  C   UNL     1     149.764 161.464 147.927  1.00  0.00     0.337 C 
ATOM     24  O   UNL     1     148.979 162.361 147.661  1.00  0.00    -0.246 OA
BRANCH  23  25
ATOM     25  O   UNL     1     149.487 160.320 148.598  1.00  0.00    -0.460 OA
BRANCH  25  26
ATOM     26  C   UNL     1     148.655 160.455 149.764  1.00  0.00     0.170 C 
ATOM     27  C   UNL     1     147.435 159.569 149.549  1.00  0.00     0.052 C 
ATOM     28  C   UNL     1     149.435 160.015 150.998  1.00  0.00     0.052 C 
ENDBRANCH  25  26
ENDBRANCH  23  25
ENDBRANCH   5  23
TORSDOF 6
ENDMDL
MODEL 9
REMARK VINA RESULT:    -6.212      4.110      7.592
REMARK INTER + INTRA:         -10.055
REMARK INTER:                  -8.764
REMARK INTRA:                  -1.290
REMARK UNBOUND:                -1.663
REMARK SMILES COC(=O)C1=C(C)NC(C)=C(C(=O)OC(C)C)[C@@H]1c1cccc2nonc12
REMARK SMILES IDX 7 1 6 2 5 3 18 4 11 5 9 6 8 7 10 8 3 10 4 11 2 12 1 13 19 14
REMARK SMILES IDX 20 15 27 16 21 17 26 18 23 19 22 20 25 21 24 22 12 23 13 24
REMARK SMILES IDX 14 25 15 26 16 27 17 28
REMARK H PARENT 8 9
ROOT
ATOM      1  C   UNL     1     149.435 159.690 151.366  1.00  0.00     0.065 C 
ATOM      2  C   UNL     1     148.999 159.357 149.962  1.00  0.00     0.023 C 
ATOM      3  C   UNL     1     148.990 158.112 149.434  1.00  0.00     0.068 C 
ATOM      4  C   UNL     1     148.540 157.864 147.997  1.00  0.00     0.100 C 
ATOM      5  C   UNL     1     148.197 159.144 147.245  1.00  0.00     0.068 C 
ATOM      6  C   UNL     1     148.251 160.354 147.845  1.00  0.00     0.023 C 
ATOM      7  N   UNL     1     148.623 160.437 149.177  1.00  0.00    -0.362 N 
ATOM      8  C   UNL     1     147.977 161.666 147.156  1.00  0.00     0.065 C 
ATOM      9  H   UNL     1     148.604 161.354 149.616  1.00  0.00     0.166 HD
ENDROOT
BRANCH   3  10
ATOM     10  C   UNL     1     149.385 156.932 150.235  1.00  0.00     0.336 C 
ATOM     11  O   UNL     1     150.517 156.482 150.307  1.00  0.00    -0.246 OA
BRANCH  10  12
ATOM     12  O   UNL     1     148.292 156.434 150.871  1.00  0.00    -0.466 OA
ATOM     13  C   UNL     1     148.347 155.025 151.094  1.00  0.00     0.282 C 
ENDBRANCH  10  12
ENDBRANCH   3  10
BRANCH   4  14
ATOM     14  C   UNL     1     147.390 156.867 147.935  1.00  0.00    -0.004 A 
ATOM     15  C   UNL     1     147.547 155.603 147.302  1.00  0.00     0.007 A 
ATOM     16  C   UNL     1     146.087 157.068 148.458  1.00  0.00     0.139 A 
ATOM     17  C   UNL     1     146.518 154.630 147.201  1.00  0.00     0.003 A 
ATOM     18  N   UNL     1     145.579 158.128 149.100  1.00  0.00    -0.049 NA
ATOM     19  C   UNL     1     145.033 156.066 148.351  1.00  0.00     0.135 A 
ATOM     20  C   UNL     1     145.227 154.823 147.721  1.00  0.00     0.034 A 
ATOM     21  O   UNL     1     144.267 157.808 149.392  1.00  0.00    -0.243 OA
ATOM     22  N   UNL     1     143.928 156.548 148.930  1.00  0.00    -0.050 NA
ENDBRANCH   4  14
BRANCH   5  23
ATOM     23  C   UNL     1     147.842 158.949 145.824  1.00  0.00     0.337 C 
ATOM     24  O   UNL     1     146.725 159.165 145.379  1.00  0.00    -0.246 OA
BRANCH  23  25
ATOM     25  O   UNL     1     148.943 158.605 145.113  1.00  0.00    -0.460 OA
BRANCH  25  26
ATOM     26  C   UNL     1     149.861 159.670 144.809  1.00  0.00     0.170 C 
ATOM     27  C   UNL     1     151.169 159.023 144.374  1.00  0.00     0.052 C 
ATOM     28  C   UNL     1     149.285 160.536 143.695  1.00  0.00     0.052 C 
ENDBRANCH  25  26
ENDBRANCH  23  25
ENDBRANCH   5  23
TORSDOF 6
ENDMDL
MODEL 10
REMARK VINA RESULT:    -6.201      3.353      5.592
REMARK INTER + INTRA:         -10.039
REMARK INTER:                  -8.408
REMARK INTRA:                  -1.631
REMARK UNBOUND:                -1.663
REMARK SMILES COC(=O)C1=C(C)NC(C)=C(C(=O)OC(C)C)[C@@H]1c1cccc2nonc12
REMARK SMILES IDX 7 1 6 2 5 3 18 4 11 5 9 6 8 7 10 8 3 10 4 11 2 12 1 13 19 14
REMARK SMILES IDX 20 15 27 16 21 17 26 18 23 19 22 20 25 21 24 22 12 23 13 24
REMARK SMILES IDX 14 25 15 26 16 27 17 28
REMARK H PARENT 8 9
ROOT
ATOM      1  C   UNL     1     151.828 157.464 151.644  1.00  0.00     0.065 C 
ATOM      2  C   UNL     1     151.922 158.893 151.175  1.00  0.00     0.023 C 
ATOM      3  C   UNL     1     153.046 159.475 150.699  1.00  0.00     0.068 C 
ATOM      4  C   UNL     1     153.056 160.934 150.252  1.00  0.00     0.100 C 
ATOM      5  C   UNL     1     151.724 161.639 150.475  1.00  0.00     0.068 C 
ATOM      6  C   UNL     1     150.651 160.986 150.974  1.00  0.00     0.023 C 
ATOM      7  N   UNL     1     150.759 159.641 151.290  1.00  0.00    -0.362 N 
ATOM      8  C   UNL     1     149.319 161.625 151.270  1.00  0.00     0.065 C 
ATOM      9  H   UNL     1     149.922 159.163 151.614  1.00  0.00     0.166 HD
ENDROOT
BRANCH   3  10
ATOM     10  C   UNL     1     154.308 158.715 150.561  1.00  0.00     0.336 C 
ATOM     11  O   UNL     1     154.557 157.928 149.661  1.00  0.00    -0.246 OA
BRANCH  10  12
ATOM     12  O   UNL     1     155.138 159.029 151.591  1.00  0.00    -0.466 OA
ATOM     13  C   UNL     1     155.515 157.908 152.390  1.00  0.00     0.282 C 
ENDBRANCH  10  12
ENDBRANCH   3  10
BRANCH   4  14
ATOM     14  C   UNL     1     153.515 161.073 148.806  1.00  0.00    -0.004 A 
ATOM     15  C   UNL     1     152.676 160.675 147.728  1.00  0.00     0.007 A 
ATOM     16  C   UNL     1     154.771 161.572 148.377  1.00  0.00     0.139 A 
ATOM     17  C   UNL     1     153.041 160.768 146.359  1.00  0.00     0.003 A 
ATOM     18  N   UNL     1     155.804 162.021 149.103  1.00  0.00    -0.049 NA
ATOM     19  C   UNL     1     155.142 161.665 146.970  1.00  0.00     0.135 A 
ATOM     20  C   UNL     1     154.283 161.267 145.930  1.00  0.00     0.034 A 
ATOM     21  O   UNL     1     156.780 162.387 148.196  1.00  0.00    -0.243 OA
ATOM     22  N   UNL     1     156.380 162.166 146.890  1.00  0.00    -0.050 NA
ENDBRANCH   4  14
BRANCH   5  23
ATOM     23  C   UNL     1     151.721 163.077 150.135  1.00  0.00     0.337 C 
ATOM     24  O   UNL     1     151.101 163.539 149.190  1.00  0.00    -0.246 OA
BRANCH  23  25
ATOM     25  O   UNL     1     152.411 163.777 151.069  1.00  0.00    -0.460 OA
BRANCH  25  26
ATOM     26  C   UNL     1     151.680 164.806 151.758  1.00  0.00     0.170 C 
ATOM     27  C   UNL     1     151.517 164.349 153.202  1.00  0.00     0.052 C 
ATOM     28  C   UNL     1     152.455 166.116 151.687  1.00  0.00     0.052 C 
ENDBRANCH  25  26
ENDBRANCH  23  25
ENDBRANCH   5  23
TORSDOF 6
ENDMDL
MODEL 11
REMARK VINA RESULT:    -6.132      4.236      7.749
REMARK INTER + INTRA:          -9.947
REMARK INTER:                  -8.482
REMARK INTRA:                  -1.464
REMARK UNBOUND:                -1.663
REMARK SMILES COC(=O)C1=C(C)NC(C)=C(C(=O)OC(C)C)[C@@H]1c1cccc2nonc12
REMARK SMILES IDX 7 1 6 2 5 3 18 4 11 5 9 6 8 7 10 8 3 10 4 11 2 12 1 13 19 14
REMARK SMILES IDX 20 15 27 16 21 17 26 18 23 19 22 20 25 21 24 22 12 23 13 24
REMARK SMILES IDX 14 25 15 26 16 27 17 28
REMARK H PARENT 8 9
ROOT
ATOM      1  C   UNL     1     151.800 155.208 150.697  1.00  0.00     0.065 C 
ATOM      2  C   UNL     1     150.783 156.233 150.263  1.00  0.00     0.023 C 
ATOM      3  C   UNL     1     149.905 156.065 149.248  1.00  0.00     0.068 C 
ATOM      4  C   UNL     1     148.913 157.160 148.869  1.00  0.00     0.100 C 
ATOM      5  C   UNL     1     149.083 158.435 149.686  1.00  0.00     0.068 C 
ATOM      6  C   UNL     1     150.001 158.526 150.674  1.00  0.00     0.023 C 
ATOM      7  N   UNL     1     150.807 157.435 150.956  1.00  0.00    -0.362 N 
ATOM      8  C   UNL     1     150.263 159.765 151.489  1.00  0.00     0.065 C 
ATOM      9  H   UNL     1     151.452 157.514 151.739  1.00  0.00     0.166 HD
ENDROOT
BRANCH   3  10
ATOM     10  C   UNL     1     149.847 154.800 148.482  1.00  0.00     0.336 C 
ATOM     11  O   UNL     1     149.354 153.759 148.886  1.00  0.00    -0.246 OA
BRANCH  10  12
ATOM     12  O   UNL     1     150.426 154.983 147.266  1.00  0.00    -0.466 OA
ATOM     13  C   UNL     1     150.933 153.783 146.683  1.00  0.00     0.282 C 
ENDBRANCH  10  12
ENDBRANCH   3  10
BRANCH   4  14
ATOM     14  C   UNL     1     147.476 156.657 148.929  1.00  0.00    -0.004 A 
ATOM     15  C   UNL     1     146.996 155.939 150.059  1.00  0.00     0.007 A 
ATOM     16  C   UNL     1     146.496 156.819 147.917  1.00  0.00     0.139 A 
ATOM     17  C   UNL     1     145.674 155.436 150.180  1.00  0.00     0.003 A 
ATOM     18  N   UNL     1     146.591 157.422 146.724  1.00  0.00    -0.049 NA
ATOM     19  C   UNL     1     145.139 156.299 148.045  1.00  0.00     0.135 A 
ATOM     20  C   UNL     1     144.699 155.598 149.182  1.00  0.00     0.034 A 
ATOM     21  O   UNL     1     145.351 157.296 146.129  1.00  0.00    -0.243 OA
ATOM     22  N   UNL     1     144.461 156.605 146.933  1.00  0.00    -0.050 NA
ENDBRANCH   4  14
BRANCH   5  23
ATOM     23  C   UNL     1     148.197 159.548 149.286  1.00  0.00     0.337 C 
ATOM     24  O   UNL     1     147.306 159.981 150.000  1.00  0.00    -0.246 OA
BRANCH  23  25
ATOM     25  O   UNL     1     148.590 160.048 148.090  1.00  0.00    -0.460 OA
BRANCH  25  26
ATOM     26  C   UNL     1     149.245 161.329 148.123  1.00  0.00     0.170 C 
ATOM     27  C   UNL     1     150.646 161.130 147.557  1.00  0.00     0.052 C 
ATOM     28  C   UNL     1     148.456 162.325 147.282  1.00  0.00     0.052 C 
ENDBRANCH  25  26
ENDBRANCH  23  25
ENDBRANCH   5  23
TORSDOF 6
ENDMDL
MODEL 12
REMARK VINA RESULT:    -6.115      4.412      7.720
REMARK INTER + INTRA:          -9.924
REMARK INTER:                  -8.805
REMARK INTRA:                  -1.119
REMARK UNBOUND:                -1.663
REMARK SMILES COC(=O)C1=C(C)NC(C)=C(C(=O)OC(C)C)[C@@H]1c1cccc2nonc12
REMARK SMILES IDX 7 1 6 2 5 3 18 4 11 5 9 6 8 7 10 8 3 10 4 11 2 12 1 13 19 14
REMARK SMILES IDX 20 15 27 16 21 17 26 18 23 19 22 20 25 21 24 22 12 23 13 24
REMARK SMILES IDX 14 25 15 26 16 27 17 28
REMARK H PARENT 8 9
ROOT
ATOM      1  C   UNL     1     146.653 158.126 145.076  1.00  0.00     0.065 C 
ATOM      2  C   UNL     1     146.970 158.296 146.541  1.00  0.00     0.023 C 
ATOM      3  C   UNL     1     146.526 157.480 147.524  1.00  0.00     0.068 C 
ATOM      4  C   UNL     1     146.888 157.730 148.985  1.00  0.00     0.100 C 
ATOM      5  C   UNL     1     147.706 158.998 149.193  1.00  0.00     0.068 C 
ATOM      6  C   UNL     1     148.094 159.770 148.153  1.00  0.00     0.023 C 
ATOM      7  N   UNL     1     147.744 159.400 146.864  1.00  0.00    -0.362 N 
ATOM      8  C   UNL     1     148.858 161.062 148.282  1.00  0.00     0.065 C 
ATOM      9  H   UNL     1     148.094 159.970 146.098  1.00  0.00     0.166 HD
ENDROOT
BRANCH   3  10
ATOM     10  C   UNL     1     145.696 156.292 147.223  1.00  0.00     0.336 C 
ATOM     11  O   UNL     1     144.481 156.241 147.334  1.00  0.00    -0.246 OA
BRANCH  10  12
ATOM     12  O   UNL     1     146.498 155.276 146.810  1.00  0.00    -0.466 OA
ATOM     13  C   UNL     1     146.197 154.021 147.418  1.00  0.00     0.282 C 
ENDBRANCH  10  12
ENDBRANCH   3  10
BRANCH   4  14
ATOM     14  C   UNL     1     147.581 156.522 149.603  1.00  0.00    -0.004 A 
ATOM     15  C   UNL     1     146.970 155.781 150.652  1.00  0.00     0.007 A 
ATOM     16  C   UNL     1     148.858 156.023 149.243  1.00  0.00     0.139 A 
ATOM     17  C   UNL     1     147.560 154.652 151.278  1.00  0.00     0.003 A 
ATOM     18  N   UNL     1     149.720 156.469 148.318  1.00  0.00    -0.049 NA
ATOM     19  C   UNL     1     149.462 154.864 149.890  1.00  0.00     0.135 A 
ATOM     20  C   UNL     1     148.823 154.152 150.921  1.00  0.00     0.034 A 
ATOM     21  O   UNL     1     150.813 155.626 148.374  1.00  0.00    -0.243 OA
ATOM     22  N   UNL     1     150.660 154.645 149.338  1.00  0.00    -0.050 NA
ENDBRANCH   4  14
BRANCH   5  23
ATOM     23  C   UNL     1     148.000 159.319 150.605  1.00  0.00     0.337 C 
ATOM     24  O   UNL     1     147.139 159.372 151.471  1.00  0.00    -0.246 OA
BRANCH  23  25
ATOM     25  O   UNL     1     149.337 159.438 150.787  1.00  0.00    -0.460 OA
BRANCH  25  26
ATOM     26  C   UNL     1     149.756 160.172 151.950  1.00  0.00     0.170 C 
ATOM     27  C   UNL     1     151.201 159.779 152.231  1.00  0.00     0.052 C 
ATOM     28  C   UNL     1     149.644 161.667 151.677  1.00  0.00     0.052 C 
ENDBRANCH  25  26
ENDBRANCH  23  25
ENDBRANCH   5  23
TORSDOF 6
ENDMDL
MODEL 13
REMARK VINA RESULT:    -6.107      4.363      6.195
REMARK INTER + INTRA:          -9.912
REMARK INTER:                  -8.321
REMARK INTRA:                  -1.591
REMARK UNBOUND:                -1.663
REMARK SMILES COC(=O)C1=C(C)NC(C)=C(C(=O)OC(C)C)[C@@H]1c1cccc2nonc12
REMARK SMILES IDX 7 1 6 2 5 3 18 4 11 5 9 6 8 7 10 8 3 10 4 11 2 12 1 13 19 14
REMARK SMILES IDX 20 15 27 16 21 17 26 18 23 19 22 20 25 21 24 22 12 23 13 24
REMARK SMILES IDX 14 25 15 26 16 27 17 28
REMARK H PARENT 8 9
ROOT
ATOM      1  C   UNL     1     156.773 160.132 146.576  1.00  0.00     0.065 C 
ATOM      2  C   UNL     1     155.472 159.881 147.295  1.00  0.00     0.023 C 
ATOM      3  C   UNL     1     155.016 158.660 147.659  1.00  0.00     0.068 C 
ATOM      4  C   UNL     1     153.681 158.495 148.378  1.00  0.00     0.100 C 
ATOM      5  C   UNL     1     152.926 159.807 148.554  1.00  0.00     0.068 C 
ATOM      6  C   UNL     1     153.448 160.984 148.144  1.00  0.00     0.023 C 
ATOM      7  N   UNL     1     154.700 161.004 147.552  1.00  0.00    -0.362 N 
ATOM      8  C   UNL     1     152.743 162.313 148.236  1.00  0.00     0.065 C 
ATOM      9  H   UNL     1     155.090 161.910 147.301  1.00  0.00     0.166 HD
ENDROOT
BRANCH   3  10
ATOM     10  C   UNL     1     155.806 157.435 147.403  1.00  0.00     0.336 C 
ATOM     11  O   UNL     1     156.843 157.139 147.976  1.00  0.00    -0.246 OA
BRANCH  10  12
ATOM     12  O   UNL     1     155.197 156.700 146.436  1.00  0.00    -0.466 OA
ATOM     13  C   UNL     1     154.944 155.347 146.814  1.00  0.00     0.282 C 
ENDBRANCH  10  12
ENDBRANCH   3  10
BRANCH   4  14
ATOM     14  C   UNL     1     153.849 157.776 149.710  1.00  0.00    -0.004 A 
ATOM     15  C   UNL     1     153.072 156.628 150.029  1.00  0.00     0.007 A 
ATOM     16  C   UNL     1     154.739 158.149 150.749  1.00  0.00     0.139 A 
ATOM     17  C   UNL     1     153.171 155.914 151.252  1.00  0.00     0.003 A 
ATOM     18  N   UNL     1     155.604 159.171 150.807  1.00  0.00    -0.049 NA
ATOM     19  C   UNL     1     154.836 157.413 152.005  1.00  0.00     0.135 A 
ATOM     20  C   UNL     1     154.055 156.277 152.282  1.00  0.00     0.034 A 
ATOM     21  O   UNL     1     156.224 159.081 152.038  1.00  0.00    -0.243 OA
ATOM     22  N   UNL     1     155.753 158.009 152.776  1.00  0.00    -0.050 NA
ENDBRANCH   4  14
BRANCH   5  23
ATOM     23  C   UNL     1     151.589 159.673 149.168  1.00  0.00     0.337 C 
ATOM     24  O   UNL     1     150.688 159.016 148.668  1.00  0.00    -0.246 OA
BRANCH  23  25
ATOM     25  O   UNL     1     151.567 160.290 150.374  1.00  0.00    -0.460 OA
BRANCH  25  26
ATOM     26  C   UNL     1     150.906 159.581 151.437  1.00  0.00     0.170 C 
ATOM     27  C   UNL     1     151.898 159.475 152.588  1.00  0.00     0.052 C 
ATOM     28  C   UNL     1     149.659 160.349 151.862  1.00  0.00     0.052 C 
ENDBRANCH  25  26
ENDBRANCH  23  25
ENDBRANCH   5  23
TORSDOF 6
ENDMDL
MODEL 14
REMARK VINA RESULT:    -6.104      2.917      4.927
REMARK INTER + INTRA:          -9.908
REMARK INTER:                  -8.218
REMARK INTRA:                  -1.690
REMARK UNBOUND:                -1.663
REMARK SMILES COC(=O)C1=C(C)NC(C)=C(C(=O)OC(C)C)[C@@H]1c1cccc2nonc12
REMARK SMILES IDX 7 1 6 2 5 3 18 4 11 5 9 6 8 7 10 8 3 10 4 11 2 12 1 13 19 14
REMARK SMILES IDX 20 15 27 16 21 17 26 18 23 19 22 20 25 21 24 22 12 23 13 24
REMARK SMILES IDX 14 25 15 26 16 27 17 28
REMARK H PARENT 8 9
ROOT
ATOM      1  C   UNL     1     155.906 159.104 149.411  1.00  0.00     0.065 C 
ATOM      2  C   UNL     1     154.785 159.993 148.934  1.00  0.00     0.023 C 
ATOM      3  C   UNL     1     153.547 160.029 149.478  1.00  0.00     0.068 C 
ATOM      4  C   UNL     1     152.466 160.955 148.926  1.00  0.00     0.100 C 
ATOM      5  C   UNL     1     152.914 161.735 147.696  1.00  0.00     0.068 C 
ATOM      6  C   UNL     1     154.168 161.626 147.205  1.00  0.00     0.023 C 
ATOM      7  N   UNL     1     155.075 160.788 147.835  1.00  0.00    -0.362 N 
ATOM      8  C   UNL     1     154.669 162.322 145.967  1.00  0.00     0.065 C 
ATOM      9  H   UNL     1     156.026 160.765 147.475  1.00  0.00     0.166 HD
ENDROOT
BRANCH   3  10
ATOM     10  C   UNL     1     153.195 159.197 150.650  1.00  0.00     0.336 C 
ATOM     11  O   UNL     1     153.490 159.456 151.806  1.00  0.00    -0.246 OA
BRANCH  10  12
ATOM     12  O   UNL     1     152.498 158.107 150.235  1.00  0.00    -0.466 OA
ATOM     13  C   UNL     1     153.096 156.865 150.604  1.00  0.00     0.282 C 
ENDBRANCH  10  12
ENDBRANCH   3  10
BRANCH   4  14
ATOM     14  C   UNL     1     151.929 161.889 150.002  1.00  0.00    -0.004 A 
ATOM     15  C   UNL     1     152.721 162.955 150.513  1.00  0.00     0.007 A 
ATOM     16  C   UNL     1     150.649 161.809 150.609  1.00  0.00     0.139 A 
ATOM     17  C   UNL     1     152.287 163.858 151.519  1.00  0.00     0.003 A 
ATOM     18  N   UNL     1     149.654 160.938 150.392  1.00  0.00    -0.049 NA
ATOM     19  C   UNL     1     150.209 162.738 151.643  1.00  0.00     0.135 A 
ATOM     20  C   UNL     1     151.019 163.785 152.119  1.00  0.00     0.034 A 
ATOM     21  O   UNL     1     148.631 161.304 151.244  1.00  0.00    -0.243 OA
ATOM     22  N   UNL     1     148.968 162.403 152.015  1.00  0.00    -0.050 NA
ENDBRANCH   4  14
BRANCH   5  23
ATOM     23  C   UNL     1     151.864 162.575 147.082  1.00  0.00     0.337 C 
ATOM     24  O   UNL     1     150.825 162.120 146.630  1.00  0.00    -0.246 OA
BRANCH  23  25
ATOM     25  O   UNL     1     152.193 163.885 147.195  1.00  0.00    -0.460 OA
BRANCH  25  26
ATOM     26  C   UNL     1     151.109 164.823 147.075  1.00  0.00     0.170 C 
ATOM     27  C   UNL     1     150.685 165.199 148.489  1.00  0.00     0.052 C 
ATOM     28  C   UNL     1     151.581 166.050 146.304  1.00  0.00     0.052 C 
ENDBRANCH  25  26
ENDBRANCH  23  25
ENDBRANCH   5  23
TORSDOF 6
ENDMDL
MODEL 15
REMARK VINA RESULT:    -6.011      3.875      6.448
REMARK INTER + INTRA:          -9.782
REMARK INTER:                  -8.035
REMARK INTRA:                  -1.747
REMARK UNBOUND:                -1.663
REMARK SMILES COC(=O)C1=C(C)NC(C)=C(C(=O)OC(C)C)[C@@H]1c1cccc2nonc12
REMARK SMILES IDX 7 1 6 2 5 3 18 4 11 5 9 6 8 7 10 8 3 10 4 11 2 12 1 13 19 14
REMARK SMILES IDX 20 15 27 16 21 17 26 18 23 19 22 20 25 21 24 22 12 23 13 24
REMARK SMILES IDX 14 25 15 26 16 27 17 28
REMARK H PARENT 8 9
ROOT
ATOM      1  C   UNL     1     151.344 162.898 147.081  1.00  0.00     0.065 C 
ATOM      2  C   UNL     1     152.367 161.796 147.189  1.00  0.00     0.023 C 
ATOM      3  C   UNL     1     153.031 161.470 148.322  1.00  0.00     0.068 C 
ATOM      4  C   UNL     1     154.059 160.342 148.341  1.00  0.00     0.100 C 
ATOM      5  C   UNL     1     154.289 159.716 146.971  1.00  0.00     0.068 C 
ATOM      6  C   UNL     1     153.594 160.115 145.884  1.00  0.00     0.023 C 
ATOM      7  N   UNL     1     152.644 161.116 146.013  1.00  0.00    -0.362 N 
ATOM      8  C   UNL     1     153.800 159.581 144.490  1.00  0.00     0.065 C 
ATOM      9  H   UNL     1     152.099 161.359 145.189  1.00  0.00     0.166 HD
ENDROOT
BRANCH   3  10
ATOM     10  C   UNL     1     152.767 162.170 149.598  1.00  0.00     0.336 C 
ATOM     11  O   UNL     1     153.505 162.999 150.108  1.00  0.00    -0.246 OA
BRANCH  10  12
ATOM     12  O   UNL     1     151.582 161.745 150.109  1.00  0.00    -0.466 OA
ATOM     13  C   UNL     1     151.628 161.450 151.505  1.00  0.00     0.282 C 
ENDBRANCH  10  12
ENDBRANCH   3  10
BRANCH   4  14
ATOM     14  C   UNL     1     153.707 159.282 149.377  1.00  0.00    -0.004 A 
ATOM     15  C   UNL     1     152.481 158.564 149.305  1.00  0.00     0.007 A 
ATOM     16  C   UNL     1     154.503 158.911 150.490  1.00  0.00     0.139 A 
ATOM     17  C   UNL     1     152.085 157.570 150.239  1.00  0.00     0.003 A 
ATOM     18  N   UNL     1     155.698 159.377 150.878  1.00  0.00    -0.049 NA
ATOM     19  C   UNL     1     154.092 157.890 151.447  1.00  0.00     0.135 A 
ATOM     20  C   UNL     1     152.873 157.196 151.339  1.00  0.00     0.034 A 
ATOM     21  O   UNL     1     156.029 158.679 152.023  1.00  0.00    -0.243 OA
ATOM     22  N   UNL     1     155.046 157.771 152.377  1.00  0.00    -0.050 NA
ENDBRANCH   4  14
BRANCH   5  23
ATOM     23  C   UNL     1     155.343 158.680 146.935  1.00  0.00     0.337 C 
ATOM     24  O   UNL     1     156.524 158.923 147.128  1.00  0.00    -0.246 OA
BRANCH  23  25
ATOM     25  O   UNL     1     154.787 157.457 146.761  1.00  0.00    -0.460 OA
BRANCH  25  26
ATOM     26  C   UNL     1     155.576 156.334 147.192  1.00  0.00     0.170 C 
ATOM     27  C   UNL     1     154.916 155.778 148.447  1.00  0.00     0.052 C 
ATOM     28  C   UNL     1     155.613 155.285 146.087  1.00  0.00     0.052 C 
ENDBRANCH  25  26
ENDBRANCH  23  25
ENDBRANCH   5  23
TORSDOF 6
ENDMDL
MODEL 16
REMARK VINA RESULT:    -5.997      2.618      5.123
REMARK INTER + INTRA:          -9.764
REMARK INTER:                  -8.368
REMARK INTRA:                  -1.396
REMARK UNBOUND:                -1.663
REMARK SMILES COC(=O)C1=C(C)NC(C)=C(C(=O)OC(C)C)[C@@H]1c1cccc2nonc12
REMARK SMILES IDX 7 1 6 2 5 3 18 4 11 5 9 6 8 7 10 8 3 10 4 11 2 12 1 13 19 14
REMARK SMILES IDX 20 15 27 16 21 17 26 18 23 19 22 20 25 21 24 22 12 23 13 24
REMARK SMILES IDX 14 25 15 26 16 27 17 28
REMARK H PARENT 8 9
ROOT
ATOM      1  C   UNL     1     151.478 164.641 153.259  1.00  0.00     0.065 C 
ATOM      2  C   UNL     1     151.034 163.800 152.089  1.00  0.00     0.023 C 
ATOM      3  C   UNL     1     151.281 164.094 150.792  1.00  0.00     0.068 C 
ATOM      4  C   UNL     1     150.786 163.190 149.667  1.00  0.00     0.100 C 
ATOM      5  C   UNL     1     149.951 162.016 150.162  1.00  0.00     0.068 C 
ATOM      6  C   UNL     1     149.737 161.805 151.480  1.00  0.00     0.023 C 
ATOM      7  N   UNL     1     150.291 162.673 152.407  1.00  0.00    -0.362 N 
ATOM      8  C   UNL     1     148.882 160.700 152.044  1.00  0.00     0.065 C 
ATOM      9  H   UNL     1     150.157 162.460 153.392  1.00  0.00     0.166 HD
ENDROOT
BRANCH   3  10
ATOM     10  C   UNL     1     152.068 165.287 150.408  1.00  0.00     0.336 C 
ATOM     11  O   UNL     1     153.274 165.406 150.554  1.00  0.00    -0.246 OA
BRANCH  10  12
ATOM     12  O   UNL     1     151.238 166.221 149.874  1.00  0.00    -0.466 OA
ATOM     13  C   UNL     1     151.190 167.440 150.615  1.00  0.00     0.282 C 
ENDBRANCH  10  12
ENDBRANCH   3  10
BRANCH   4  14
ATOM     14  C   UNL     1     151.934 162.714 148.787  1.00  0.00    -0.004 A 
ATOM     15  C   UNL     1     152.050 163.140 147.435  1.00  0.00     0.007 A 
ATOM     16  C   UNL     1     152.966 161.823 149.177  1.00  0.00     0.139 A 
ATOM     17  C   UNL     1     153.088 162.731 146.556  1.00  0.00     0.003 A 
ATOM     18  N   UNL     1     153.170 161.216 150.354  1.00  0.00    -0.049 NA
ATOM     19  C   UNL     1     154.029 161.404 148.271  1.00  0.00     0.135 A 
ATOM     20  C   UNL     1     154.114 161.852 146.940  1.00  0.00     0.034 A 
ATOM     21  O   UNL     1     154.314 160.456 150.202  1.00  0.00    -0.243 OA
ATOM     22  N   UNL     1     154.839 160.565 148.926  1.00  0.00    -0.050 NA
ENDBRANCH   4  14
BRANCH   5  23
ATOM     23  C   UNL     1     149.381 161.169 149.094  1.00  0.00     0.337 C 
ATOM     24  O   UNL     1     148.554 161.574 148.291  1.00  0.00    -0.246 OA
BRANCH  23  25
ATOM     25  O   UNL     1     149.980 159.954 149.094  1.00  0.00    -0.460 OA
BRANCH  25  26
ATOM     26  C   UNL     1     149.186 158.855 148.616  1.00  0.00     0.170 C 
ATOM     27  C   UNL     1     149.909 158.271 147.409  1.00  0.00     0.052 C 
ATOM     28  C   UNL     1     149.042 157.814 149.720  1.00  0.00     0.052 C 
ENDBRANCH  25  26
ENDBRANCH  23  25
ENDBRANCH   5  23
TORSDOF 6
ENDMDL
MODEL 17
REMARK VINA RESULT:    -5.983      4.031      6.176
REMARK INTER + INTRA:          -9.745
REMARK INTER:                  -8.486
REMARK INTRA:                  -1.259
REMARK UNBOUND:                -1.663
REMARK SMILES COC(=O)C1=C(C)NC(C)=C(C(=O)OC(C)C)[C@@H]1c1cccc2nonc12
REMARK SMILES IDX 7 1 6 2 5 3 18 4 11 5 9 6 8 7 10 8 3 10 4 11 2 12 1 13 19 14
REMARK SMILES IDX 20 15 27 16 21 17 26 18 23 19 22 20 25 21 24 22 12 23 13 24
REMARK SMILES IDX 14 25 15 26 16 27 17 28
REMARK H PARENT 8 9
ROOT
ATOM      1  C   UNL     1     152.357 155.982 151.320  1.00  0.00     0.065 C 
ATOM      2  C   UNL     1     150.961 156.398 150.930  1.00  0.00     0.023 C 
ATOM      3  C   UNL     1     150.632 157.609 150.425  1.00  0.00     0.068 C 
ATOM      4  C   UNL     1     149.190 157.952 150.064  1.00  0.00     0.100 C 
ATOM      5  C   UNL     1     148.205 156.840 150.403  1.00  0.00     0.068 C 
ATOM      6  C   UNL     1     148.617 155.663 150.924  1.00  0.00     0.023 C 
ATOM      7  N   UNL     1     149.968 155.456 151.154  1.00  0.00    -0.362 N 
ATOM      8  C   UNL     1     147.702 154.538 151.333  1.00  0.00     0.065 C 
ATOM      9  H   UNL     1     150.255 154.543 151.498  1.00  0.00     0.166 HD
ENDROOT
BRANCH   3  10
ATOM     10  C   UNL     1     151.659 158.643 150.171  1.00  0.00     0.336 C 
ATOM     11  O   UNL     1     152.562 158.548 149.354  1.00  0.00    -0.246 OA
BRANCH  10  12
ATOM     12  O   UNL     1     151.439 159.707 150.987  1.00  0.00    -0.466 OA
ATOM     13  C   UNL     1     152.145 159.639 152.225  1.00  0.00     0.282 C 
ENDBRANCH  10  12
ENDBRANCH   3  10
BRANCH   4  14
ATOM     14  C   UNL     1     149.063 158.370 148.604  1.00  0.00    -0.004 A 
ATOM     15  C   UNL     1     149.438 157.488 147.553  1.00  0.00     0.007 A 
ATOM     16  C   UNL     1     148.597 159.625 148.137  1.00  0.00     0.139 A 
ATOM     17  C   UNL     1     149.353 157.814 146.173  1.00  0.00     0.003 A 
ATOM     18  N   UNL     1     148.177 160.692 148.830  1.00  0.00    -0.049 NA
ATOM     19  C   UNL     1     148.514 159.955 146.719  1.00  0.00     0.135 A 
ATOM     20  C   UNL     1     148.889 159.054 145.706  1.00  0.00     0.034 A 
ATOM     21  O   UNL     1     147.836 161.649 147.893  1.00  0.00    -0.243 OA
ATOM     22  N   UNL     1     148.046 161.203 146.600  1.00  0.00    -0.050 NA
ENDBRANCH   4  14
BRANCH   5  23
ATOM     23  C   UNL     1     146.787 157.170 150.149  1.00  0.00     0.337 C 
ATOM     24  O   UNL     1     146.254 158.187 150.566  1.00  0.00    -0.246 OA
BRANCH  23  25
ATOM     25  O   UNL     1     146.235 156.247 149.326  1.00  0.00    -0.460 OA
BRANCH  25  26
ATOM     26  C   UNL     1     145.007 156.627 148.680  1.00  0.00     0.170 C 
ATOM     27  C   UNL     1     145.072 156.101 147.251  1.00  0.00     0.052 C 
ATOM     28  C   UNL     1     143.828 156.020 149.430  1.00  0.00     0.052 C 
ENDBRANCH  25  26
ENDBRANCH  23  25
ENDBRANCH   5  23
TORSDOF 6
ENDMDL
MODEL 18
REMARK VINA RESULT:    -5.974      3.965      6.489
REMARK INTER + INTRA:          -9.732
REMARK INTER:                  -7.901
REMARK INTRA:                  -1.831
REMARK UNBOUND:                -1.663
REMARK SMILES COC(=O)C1=C(C)NC(C)=C(C(=O)OC(C)C)[C@@H]1c1cccc2nonc12
REMARK SMILES IDX 7 1 6 2 5 3 18 4 11 5 9 6 8 7 10 8 3 10 4 11 2 12 1 13 19 14
REMARK SMILES IDX 20 15 27 16 21 17 26 18 23 19 22 20 25 21 24 22 12 23 13 24
REMARK SMILES IDX 14 25 15 26 16 27 17 28
REMARK H PARENT 8 9
ROOT
ATOM      1  C   UNL     1     145.652 158.254 149.682  1.00  0.00     0.065 C 
ATOM      2  C   UNL     1     147.086 157.828 149.869  1.00  0.00     0.023 C 
ATOM      3  C   UNL     1     148.160 158.529 149.439  1.00  0.00     0.068 C 
ATOM      4  C   UNL     1     149.581 158.021 149.663  1.00  0.00     0.100 C 
ATOM      5  C   UNL     1     149.631 156.651 150.330  1.00  0.00     0.068 C 
ATOM      6  C   UNL     1     148.505 156.009 150.714  1.00  0.00     0.023 C 
ATOM      7  N   UNL     1     147.274 156.607 150.501  1.00  0.00    -0.362 N 
ATOM      8  C   UNL     1     148.470 154.635 151.330  1.00  0.00     0.065 C 
ATOM      9  H   UNL     1     146.448 156.125 150.847  1.00  0.00     0.166 HD
ENDROOT
BRANCH   3  10
ATOM     10  C   UNL     1     148.006 159.835 148.759  1.00  0.00     0.336 C 
ATOM     11  O   UNL     1     147.691 160.878 149.310  1.00  0.00    -0.246 OA
BRANCH  10  12
ATOM     12  O   UNL     1     148.268 159.686 147.434  1.00  0.00    -0.466 OA
ATOM     13  C   UNL     1     149.122 160.696 146.899  1.00  0.00     0.282 C 
ENDBRANCH  10  12
ENDBRANCH   3  10
BRANCH   4  14
ATOM     14  C   UNL     1     150.423 159.034 150.428  1.00  0.00    -0.004 A 
ATOM     15  C   UNL     1     150.042 159.475 151.726  1.00  0.00     0.007 A 
ATOM     16  C   UNL     1     151.616 159.643 149.963  1.00  0.00     0.139 A 
ATOM     17  C   UNL     1     150.774 160.420 152.492  1.00  0.00     0.003 A 
ATOM     18  N   UNL     1     152.258 159.483 148.798  1.00  0.00    -0.049 NA
ATOM     19  C   UNL     1     152.363 160.616 150.752  1.00  0.00     0.135 A 
ATOM     20  C   UNL     1     151.958 161.023 152.036  1.00  0.00     0.034 A 
ATOM     21  O   UNL     1     153.364 160.309 148.852  1.00  0.00    -0.243 OA
ATOM     22  N   UNL     1     153.429 161.008 150.045  1.00  0.00    -0.050 NA
ENDBRANCH   4  14
BRANCH   5  23
ATOM     23  C   UNL     1     150.988 156.088 150.483  1.00  0.00     0.337 C 
ATOM     24  O   UNL     1     151.703 155.802 149.535  1.00  0.00    -0.246 OA
BRANCH  23  25
ATOM     25  O   UNL     1     151.327 156.041 151.794  1.00  0.00    -0.460 OA
BRANCH  25  26
ATOM     26  C   UNL     1     152.735 156.018 152.085  1.00  0.00     0.170 C 
ATOM     27  C   UNL     1     153.126 157.427 152.513  1.00  0.00     0.052 C 
ATOM     28  C   UNL     1     153.008 155.016 153.200  1.00  0.00     0.052 C 
ENDBRANCH  25  26
ENDBRANCH  23  25
ENDBRANCH   5  23
TORSDOF 6
ENDMDL
MODEL 19
REMARK VINA RESULT:    -5.935      3.949      7.064
REMARK INTER + INTRA:          -9.680
REMARK INTER:                  -7.953
REMARK INTRA:                  -1.728
REMARK UNBOUND:                -1.663
REMARK SMILES COC(=O)C1=C(C)NC(C)=C(C(=O)OC(C)C)[C@@H]1c1cccc2nonc12
REMARK SMILES IDX 7 1 6 2 5 3 18 4 11 5 9 6 8 7 10 8 3 10 4 11 2 12 1 13 19 14
REMARK SMILES IDX 20 15 27 16 21 17 26 18 23 19 22 20 25 21 24 22 12 23 13 24
REMARK SMILES IDX 14 25 15 26 16 27 17 28
REMARK H PARENT 8 9
ROOT
ATOM      1  C   UNL     1     145.479 154.879 150.139  1.00  0.00     0.065 C 
ATOM      2  C   UNL     1     146.831 155.520 149.956  1.00  0.00     0.023 C 
ATOM      3  C   UNL     1     147.048 156.685 149.304  1.00  0.00     0.068 C 
ATOM      4  C   UNL     1     148.453 157.262 149.158  1.00  0.00     0.100 C 
ATOM      5  C   UNL     1     149.536 156.361 149.740  1.00  0.00     0.068 C 
ATOM      6  C   UNL     1     149.232 155.200 150.361  1.00  0.00     0.023 C 
ATOM      7  N   UNL     1     147.906 154.816 150.477  1.00  0.00    -0.362 N 
ATOM      8  C   UNL     1     150.246 154.233 150.916  1.00  0.00     0.065 C 
ATOM      9  H   UNL     1     147.704 153.964 150.995  1.00  0.00     0.166 HD
ENDROOT
BRANCH   3  10
ATOM     10  C   UNL     1     145.930 157.469 148.732  1.00  0.00     0.336 C 
ATOM     11  O   UNL     1     145.082 158.057 149.385  1.00  0.00    -0.246 OA
BRANCH  10  12
ATOM     12  O   UNL     1     145.998 157.426 147.376  1.00  0.00    -0.466 OA
ATOM     13  C   UNL     1     145.196 156.401 146.791  1.00  0.00     0.282 C 
ENDBRANCH  10  12
ENDBRANCH   3  10
BRANCH   4  14
ATOM     14  C   UNL     1     148.543 158.669 149.733  1.00  0.00    -0.004 A 
ATOM     15  C   UNL     1     148.101 158.952 151.054  1.00  0.00     0.007 A 
ATOM     16  C   UNL     1     149.036 159.813 149.056  1.00  0.00     0.139 A 
ATOM     17  C   UNL     1     148.148 160.240 151.651  1.00  0.00     0.003 A 
ATOM     18  N   UNL     1     149.518 159.927 147.811  1.00  0.00    -0.049 NA
ATOM     19  C   UNL     1     149.081 161.134 149.672  1.00  0.00     0.135 A 
ATOM     20  C   UNL     1     148.639 161.375 150.986  1.00  0.00     0.034 A 
ATOM     21  O   UNL     1     149.859 161.257 147.651  1.00  0.00    -0.243 OA
ATOM     22  N   UNL     1     149.588 161.999 148.787  1.00  0.00    -0.050 NA
ENDBRANCH   4  14
BRANCH   5  23
ATOM     23  C   UNL     1     150.917 156.845 149.538  1.00  0.00     0.337 C 
ATOM     24  O   UNL     1     151.440 156.930 148.437  1.00  0.00    -0.246 OA
BRANCH  23  25
ATOM     25  O   UNL     1     151.444 157.255 150.716  1.00  0.00    -0.460 OA
BRANCH  25  26
ATOM     26  C   UNL     1     152.139 158.514 150.697  1.00  0.00     0.170 C 
ATOM     27  C   UNL     1     151.733 159.270 151.956  1.00  0.00     0.052 C 
ATOM     28  C   UNL     1     153.643 158.264 150.675  1.00  0.00     0.052 C 
ENDBRANCH  25  26
ENDBRANCH  23  25
ENDBRANCH   5  23
TORSDOF 6
ENDMDL
MODEL 20
REMARK VINA RESULT:    -5.927      4.014      6.925
REMARK INTER + INTRA:          -9.669
REMARK INTER:                  -8.054
REMARK INTRA:                  -1.615
REMARK UNBOUND:                -1.663
REMARK SMILES COC(=O)C1=C(C)NC(C)=C(C(=O)OC(C)C)[C@@H]1c1cccc2nonc12
REMARK SMILES IDX 7 1 6 2 5 3 18 4 11 5 9 6 8 7 10 8 3 10 4 11 2 12 1 13 19 14
REMARK SMILES IDX 20 15 27 16 21 17 26 18 23 19 22 20 25 21 24 22 12 23 13 24
REMARK SMILES IDX 14 25 15 26 16 27 17 28
REMARK H PARENT 8 9
ROOT
ATOM      1  C   UNL     1     148.976 161.363 150.250  1.00  0.00     0.065 C 
ATOM      2  C   UNL     1     150.231 160.720 149.713  1.00  0.00     0.023 C 
ATOM      3  C   UNL     1     151.317 160.413 150.458  1.00  0.00     0.068 C 
ATOM      4  C   UNL     1     152.551 159.770 149.833  1.00  0.00     0.100 C 
ATOM      5  C   UNL     1     152.441 159.602 148.322  1.00  0.00     0.068 C 
ATOM      6  C   UNL     1     151.322 159.953 147.650  1.00  0.00     0.023 C 
ATOM      7  N   UNL     1     150.245 160.477 148.348  1.00  0.00    -0.362 N 
ATOM      8  C   UNL     1     151.155 159.865 146.155  1.00  0.00     0.065 C 
ATOM      9  H   UNL     1     149.398 160.684 147.824  1.00  0.00     0.166 HD
ENDROOT
BRANCH   3  10
ATOM     10  C   UNL     1     151.345 160.657 151.918  1.00  0.00     0.336 C 
ATOM     11  O   UNL     1     150.589 160.144 152.728  1.00  0.00    -0.246 OA
BRANCH  10  12
ATOM     12  O   UNL     1     152.338 161.537 152.208  1.00  0.00    -0.466 OA
ATOM     13  C   UNL     1     151.883 162.877 152.397  1.00  0.00     0.282 C 
ENDBRANCH  10  12
ENDBRANCH   3  10
BRANCH   4  14
ATOM     14  C   UNL     1     152.897 158.449 150.508  1.00  0.00    -0.004 A 
ATOM     15  C   UNL     1     152.011 157.339 150.446  1.00  0.00     0.007 A 
ATOM     16  C   UNL     1     154.072 158.181 151.255  1.00  0.00     0.139 A 
ATOM     17  C   UNL     1     152.265 156.082 151.057  1.00  0.00     0.003 A 
ATOM     18  N   UNL     1     155.109 158.982 151.533  1.00  0.00    -0.049 NA
ATOM     19  C   UNL     1     154.327 156.889 151.882  1.00  0.00     0.135 A 
ATOM     20  C   UNL     1     153.429 155.811 151.794  1.00  0.00     0.034 A 
ATOM     21  O   UNL     1     155.983 158.229 152.293  1.00  0.00    -0.243 OA
ATOM     22  N   UNL     1     155.506 156.949 152.513  1.00  0.00    -0.050 NA
ENDBRANCH   4  14
BRANCH   5  23
ATOM     23  C   UNL     1     153.653 159.064 147.670  1.00  0.00     0.337 C 
ATOM     24  O   UNL     1     153.692 157.965 147.138  1.00  0.00    -0.246 OA
BRANCH  23  25
ATOM     25  O   UNL     1     154.635 159.996 147.673  1.00  0.00    -0.460 OA
BRANCH  25  26
ATOM     26  C   UNL     1     155.158 160.372 146.387  1.00  0.00     0.170 C 
ATOM     27  C   UNL     1     154.667 161.785 146.100  1.00  0.00     0.052 C 
ATOM     28  C   UNL     1     156.680 160.322 146.422  1.00  0.00     0.052 C 
ENDBRANCH  25  26
ENDBRANCH  23  25
ENDBRANCH   5  23
TORSDOF 6
ENDMDL
