MODEL 1
REMARK VINA RESULT:   -12.803      0.000      0.000
REMARK INTER + INTRA:         -18.382
REMARK INTER:                 -18.042
REMARK INTRA:                  -0.340
REMARK UNBOUND:                -0.340
REMARK SMILES Cc1ccc(NC(=O)c2ccc(CN3CCN(C)CC3)cc2)cc1Nc1nc(-c2cccnc2)cs1
REMARK SMILES IDX 6 1 7 2 8 3 5 5 2 6 3 7 24 8 4 9 23 10 1 11 25 12 26 14
REMARK SMILES IDX 27 15 36 16 28 17 35 18 29 19 30 20 34 21 31 22 33 23 32 24
REMARK SMILES IDX 9 25 10 26 22 27 11 28 21 29 12 30 13 31 14 32 15 33 20 34
REMARK SMILES IDX 16 35 19 36 17 37 18 38
REMARK H PARENT 6 4 25 13
ROOT
ATOM      1  N   UNL     1      24.272  26.064  40.068  1.00  0.00    -0.322 N 
ATOM      2  C   UNL     1      24.895  25.247  39.143  1.00  0.00     0.255 C 
ATOM      3  O   UNL     1      25.638  24.302  39.377  1.00  0.00    -0.269 OA
ATOM      4  H   UNL     1      23.576  26.704  39.712  1.00  0.00     0.170 HD
ENDROOT
BRANCH   1   5
ATOM      5  C   UNL     1      24.404  26.022  41.472  1.00  0.00     0.043 A 
ATOM      6  C   UNL     1      24.502  26.009  44.295  1.00  0.00    -0.027 A 
ATOM      7  C   UNL     1      23.476  26.681  43.619  1.00  0.00     0.008 A 
ATOM      8  C   UNL     1      25.506  25.364  43.548  1.00  0.00     0.045 A 
ATOM      9  C   UNL     1      23.428  26.685  42.223  1.00  0.00     0.026 A 
ATOM     10  C   UNL     1      25.443  25.375  42.143  1.00  0.00     0.052 A 
ATOM     11  C   UNL     1      24.523  26.022  45.799  1.00  0.00     0.046 C 
BRANCH   8  12
ATOM     12  N   UNL     1      26.584  24.712  44.194  1.00  0.00    -0.331 N 
ATOM     13  H   UNL     1      26.758  23.803  43.774  1.00  0.00     0.169 HD
BRANCH  12  14
ATOM     14  C   UNL     1      27.758  25.331  44.495  1.00  0.00     0.187 A 
ATOM     15  N   UNL     1      28.638  24.769  45.297  1.00  0.00    -0.220 NA
ATOM     16  S   UNL     1      28.233  26.888  43.915  1.00  0.00    -0.105 S 
ATOM     17  C   UNL     1      29.747  25.581  45.486  1.00  0.00     0.085 A 
ATOM     18  C   UNL     1      29.698  26.775  44.796  1.00  0.00     0.097 A 
BRANCH  17  19
ATOM     19  C   UNL     1      30.841  25.156  46.354  1.00  0.00     0.019 A 
ATOM     20  C   UNL     1      31.953  25.955  46.641  1.00  0.00     0.013 A 
ATOM     21  C   UNL     1      30.805  23.898  46.955  1.00  0.00     0.121 A 
ATOM     22  C   UNL     1      32.955  25.479  47.491  1.00  0.00     0.021 A 
ATOM     23  N   UNL     1      31.763  23.409  47.784  1.00  0.00    -0.264 NA
ATOM     24  C   UNL     1      32.815  24.213  48.033  1.00  0.00     0.111 A 
ENDBRANCH  17  19
ENDBRANCH  12  14
ENDBRANCH   8  12
ENDBRANCH   1   5
BRANCH   2  25
ATOM     25  C   UNL     1      24.558  25.550  37.724  1.00  0.00     0.040 A 
ATOM     26  C   UNL     1      23.397  26.281  37.454  1.00  0.00     0.014 A 
ATOM     27  C   UNL     1      25.366  25.111  36.667  1.00  0.00     0.014 A 
ATOM     28  C   UNL     1      23.062  26.599  36.137  1.00  0.00     0.006 A 
ATOM     29  C   UNL     1      25.026  25.428  35.349  1.00  0.00     0.006 A 
ATOM     30  C   UNL     1      23.878  26.186  35.072  1.00  0.00    -0.034 A 
BRANCH  30  31
ATOM     31  C   UNL     1      23.501  26.519  33.639  1.00  0.00     0.120 C 
BRANCH  31  32
ATOM     32  N   UNL     1      23.871  27.895  33.260  1.00  0.00    -0.297 NA
ATOM     33  C   UNL     1      22.924  28.863  33.843  1.00  0.00     0.100 C 
ATOM     34  C   UNL     1      23.901  28.066  31.787  1.00  0.00     0.100 C 
ATOM     35  C   UNL     1      21.486  28.834  33.255  1.00  0.00     0.099 C 
ATOM     36  C   UNL     1      22.625  28.665  31.134  1.00  0.00     0.099 C 
ATOM     37  N   UNL     1      21.405  28.318  31.874  1.00  0.00    -0.304 NA
ATOM     38  C   UNL     1      20.204  28.797  31.198  1.00  0.00     0.105 C 
ENDBRANCH  31  32
ENDBRANCH  30  31
ENDBRANCH   2  25
TORSDOF 7
ENDMDL
MODEL 2
REMARK VINA RESULT:   -11.900      2.846     12.732
REMARK INTER + INTRA:         -17.109
REMARK INTER:                 -16.452
REMARK INTRA:                  -0.657
REMARK UNBOUND:                -0.340
REMARK SMILES Cc1ccc(NC(=O)c2ccc(CN3CCN(C)CC3)cc2)cc1Nc1nc(-c2cccnc2)cs1
REMARK SMILES IDX 6 1 7 2 8 3 5 5 2 6 3 7 24 8 4 9 23 10 1 11 25 12 26 14
REMARK SMILES IDX 27 15 36 16 28 17 35 18 29 19 30 20 34 21 31 22 33 23 32 24
REMARK SMILES IDX 9 25 10 26 22 27 11 28 21 29 12 30 13 31 14 32 15 33 20 34
REMARK SMILES IDX 16 35 19 36 17 37 18 38
REMARK H PARENT 6 4 25 13
ROOT
ATOM      1  N   UNL     1      28.103  26.338  44.728  1.00  0.00    -0.322 N 
ATOM      2  C   UNL     1      28.714  25.239  45.306  1.00  0.00     0.255 C 
ATOM      3  O   UNL     1      28.302  24.085  45.311  1.00  0.00    -0.269 OA
ATOM      4  H   UNL     1      28.647  27.188  44.687  1.00  0.00     0.170 HD
ENDROOT
BRANCH   1   5
ATOM      5  C   UNL     1      26.854  26.376  44.074  1.00  0.00     0.043 A 
ATOM      6  C   UNL     1      24.274  26.452  42.928  1.00  0.00    -0.027 A 
ATOM      7  C   UNL     1      24.440  26.208  44.297  1.00  0.00     0.008 A 
ATOM      8  C   UNL     1      25.413  26.628  42.121  1.00  0.00     0.045 A 
ATOM      9  C   UNL     1      25.717  26.173  44.863  1.00  0.00     0.026 A 
ATOM     10  C   UNL     1      26.692  26.592  42.705  1.00  0.00     0.052 A 
ATOM     11  C   UNL     1      22.885  26.486  42.352  1.00  0.00     0.046 C 
BRANCH   8  12
ATOM     12  N   UNL     1      25.288  26.832  40.726  1.00  0.00    -0.331 N 
ATOM     13  H   UNL     1      25.884  27.597  40.419  1.00  0.00     0.169 HD
BRANCH  12  14
ATOM     14  C   UNL     1      25.309  25.818  39.818  1.00  0.00     0.187 A 
ATOM     15  N   UNL     1      25.333  26.062  38.525  1.00  0.00    -0.220 NA
ATOM     16  S   UNL     1      25.283  24.136  40.213  1.00  0.00    -0.105 S 
ATOM     17  C   UNL     1      25.327  24.888  37.784  1.00  0.00     0.085 A 
ATOM     18  C   UNL     1      25.310  23.739  38.547  1.00  0.00     0.097 A 
BRANCH  17  19
ATOM     19  C   UNL     1      25.335  24.929  36.325  1.00  0.00     0.019 A 
ATOM     20  C   UNL     1      26.199  24.162  35.537  1.00  0.00     0.013 A 
ATOM     21  C   UNL     1      24.441  25.757  35.647  1.00  0.00     0.121 A 
ATOM     22  C   UNL     1      26.138  24.250  34.144  1.00  0.00     0.021 A 
ATOM     23  N   UNL     1      24.358  25.863  34.295  1.00  0.00    -0.264 NA
ATOM     24  C   UNL     1      25.210  25.106  33.576  1.00  0.00     0.111 A 
ENDBRANCH  17  19
ENDBRANCH  12  14
ENDBRANCH   8  12
ENDBRANCH   1   5
BRANCH   2  25
ATOM     25  C   UNL     1      30.034  25.524  45.934  1.00  0.00     0.040 A 
ATOM     26  C   UNL     1      30.500  26.842  45.941  1.00  0.00     0.014 A 
ATOM     27  C   UNL     1      30.814  24.507  46.498  1.00  0.00     0.014 A 
ATOM     28  C   UNL     1      31.724  27.147  46.538  1.00  0.00     0.006 A 
ATOM     29  C   UNL     1      32.042  24.815  47.092  1.00  0.00     0.006 A 
ATOM     30  C   UNL     1      32.503  26.140  47.129  1.00  0.00    -0.034 A 
BRANCH  30  31
ATOM     31  C   UNL     1      33.842  26.473  47.761  1.00  0.00     0.120 C 
BRANCH  31  32
ATOM     32  N   UNL     1      34.926  26.591  46.769  1.00  0.00    -0.297 NA
ATOM     33  C   UNL     1      36.240  26.434  47.419  1.00  0.00     0.100 C 
ATOM     34  C   UNL     1      34.881  27.895  46.064  1.00  0.00     0.100 C 
ATOM     35  C   UNL     1      36.662  27.588  48.368  1.00  0.00     0.099 C 
ATOM     36  C   UNL     1      35.814  29.010  46.612  1.00  0.00     0.099 C 
ATOM     37  N   UNL     1      36.037  28.889  48.058  1.00  0.00    -0.304 NA
ATOM     38  C   UNL     1      36.830  29.997  48.581  1.00  0.00     0.105 C 
ENDBRANCH  31  32
ENDBRANCH  30  31
ENDBRANCH   2  25
TORSDOF 7
ENDMDL
MODEL 3
REMARK VINA RESULT:   -10.311      3.663     11.929
REMARK INTER + INTRA:         -14.870
REMARK INTER:                 -14.547
REMARK INTRA:                  -0.323
REMARK UNBOUND:                -0.340
REMARK SMILES Cc1ccc(NC(=O)c2ccc(CN3CCN(C)CC3)cc2)cc1Nc1nc(-c2cccnc2)cs1
REMARK SMILES IDX 6 1 7 2 8 3 5 5 2 6 3 7 24 8 4 9 23 10 1 11 25 12 26 14
REMARK SMILES IDX 27 15 36 16 28 17 35 18 29 19 30 20 34 21 31 22 33 23 32 24
REMARK SMILES IDX 9 25 10 26 22 27 11 28 21 29 12 30 13 31 14 32 15 33 20 34
REMARK SMILES IDX 16 35 19 36 17 37 18 38
REMARK H PARENT 6 4 25 13
ROOT
ATOM      1  N   UNL     1      23.624  26.214  35.088  1.00  0.00    -0.322 N 
ATOM      2  C   UNL     1      24.630  25.327  35.427  1.00  0.00     0.255 C 
ATOM      3  O   UNL     1      25.351  24.703  34.659  1.00  0.00    -0.269 OA
ATOM      4  H   UNL     1      23.224  26.755  35.842  1.00  0.00     0.170 HD
ENDROOT
BRANCH   1   5
ATOM      5  C   UNL     1      23.177  26.546  33.791  1.00  0.00     0.043 A 
ATOM      6  C   UNL     1      22.296  27.033  31.153  1.00  0.00    -0.027 A 
ATOM      7  C   UNL     1      22.828  25.787  31.510  1.00  0.00     0.008 A 
ATOM      8  C   UNL     1      22.236  28.053  32.120  1.00  0.00     0.045 A 
ATOM      9  C   UNL     1      23.261  25.547  32.816  1.00  0.00     0.026 A 
ATOM     10  C   UNL     1      22.675  27.796  33.432  1.00  0.00     0.052 A 
ATOM     11  C   UNL     1      21.837  27.257  29.738  1.00  0.00     0.046 C 
BRANCH   8  12
ATOM     12  N   UNL     1      21.748  29.340  31.786  1.00  0.00    -0.331 N 
ATOM     13  H   UNL     1      21.203  29.307  30.928  1.00  0.00     0.169 HD
BRANCH  12  14
ATOM     14  C   UNL     1      21.165  30.175  32.689  1.00  0.00     0.187 A 
ATOM     15  N   UNL     1      21.814  30.582  33.759  1.00  0.00    -0.220 NA
ATOM     16  S   UNL     1      19.548  30.775  32.580  1.00  0.00    -0.105 S 
ATOM     17  C   UNL     1      21.026  31.404  34.552  1.00  0.00     0.085 A 
ATOM     18  C   UNL     1      19.759  31.624  34.052  1.00  0.00     0.097 A 
BRANCH  17  19
ATOM     19  C   UNL     1      21.546  31.957  35.799  1.00  0.00     0.019 A 
ATOM     20  C   UNL     1      20.946  33.020  36.481  1.00  0.00     0.013 A 
ATOM     21  C   UNL     1      22.696  31.415  36.374  1.00  0.00     0.121 A 
ATOM     22  C   UNL     1      21.500  33.486  37.676  1.00  0.00     0.021 A 
ATOM     23  N   UNL     1      23.258  31.847  37.533  1.00  0.00    -0.264 NA
ATOM     24  C   UNL     1      22.645  32.873  38.156  1.00  0.00     0.111 A 
ENDBRANCH  17  19
ENDBRANCH  12  14
ENDBRANCH   8  12
ENDBRANCH   1   5
BRANCH   2  25
ATOM     25  C   UNL     1      24.859  25.183  36.892  1.00  0.00     0.040 A 
ATOM     26  C   UNL     1      24.340  26.158  37.749  1.00  0.00     0.014 A 
ATOM     27  C   UNL     1      25.590  24.111  37.419  1.00  0.00     0.014 A 
ATOM     28  C   UNL     1      24.520  26.044  39.128  1.00  0.00     0.006 A 
ATOM     29  C   UNL     1      25.773  24.001  38.801  1.00  0.00     0.006 A 
ATOM     30  C   UNL     1      25.229  24.959  39.670  1.00  0.00    -0.034 A 
BRANCH  30  31
ATOM     31  C   UNL     1      25.439  24.848  41.169  1.00  0.00     0.120 C 
BRANCH  31  32
ATOM     32  N   UNL     1      25.446  26.160  41.841  1.00  0.00    -0.297 NA
ATOM     33  C   UNL     1      26.815  26.705  41.892  1.00  0.00     0.100 C 
ATOM     34  C   UNL     1      24.902  26.072  43.218  1.00  0.00     0.100 C 
ATOM     35  C   UNL     1      27.802  25.955  42.828  1.00  0.00     0.099 C 
ATOM     36  C   UNL     1      25.941  25.935  44.365  1.00  0.00     0.099 C 
ATOM     37  N   UNL     1      27.154  25.227  43.936  1.00  0.00    -0.304 NA
ATOM     38  C   UNL     1      28.078  25.013  45.044  1.00  0.00     0.105 C 
ENDBRANCH  31  32
ENDBRANCH  30  31
ENDBRANCH   2  25
TORSDOF 7
ENDMDL
MODEL 4
REMARK VINA RESULT:   -10.196      2.767     13.213
REMARK INTER + INTRA:         -14.708
REMARK INTER:                 -13.801
REMARK INTRA:                  -0.907
REMARK UNBOUND:                -0.340
REMARK SMILES Cc1ccc(NC(=O)c2ccc(CN3CCN(C)CC3)cc2)cc1Nc1nc(-c2cccnc2)cs1
REMARK SMILES IDX 6 1 7 2 8 3 5 5 2 6 3 7 24 8 4 9 23 10 1 11 25 12 26 14
REMARK SMILES IDX 27 15 36 16 28 17 35 18 29 19 30 20 34 21 31 22 33 23 32 24
REMARK SMILES IDX 9 25 10 26 22 27 11 28 21 29 12 30 13 31 14 32 15 33 20 34
REMARK SMILES IDX 16 35 19 36 17 37 18 38
REMARK H PARENT 6 4 25 13
ROOT
ATOM      1  N   UNL     1      27.972  25.970  44.721  1.00  0.00    -0.322 N 
ATOM      2  C   UNL     1      28.489  24.767  45.165  1.00  0.00     0.255 C 
ATOM      3  O   UNL     1      27.963  23.664  45.083  1.00  0.00    -0.269 OA
ATOM      4  H   UNL     1      28.597  26.764  44.732  1.00  0.00     0.170 HD
ENDROOT
BRANCH   1   5
ATOM      5  C   UNL     1      26.708  26.193  44.134  1.00  0.00     0.043 A 
ATOM      6  C   UNL     1      24.110  26.650  43.126  1.00  0.00    -0.027 A 
ATOM      7  C   UNL     1      24.312  26.384  44.486  1.00  0.00     0.008 A 
ATOM      8  C   UNL     1      25.217  26.655  42.258  1.00  0.00     0.045 A 
ATOM      9  C   UNL     1      25.598  26.160  44.983  1.00  0.00     0.026 A 
ATOM     10  C   UNL     1      26.507  26.430  42.774  1.00  0.00     0.052 A 
ATOM     11  C   UNL     1      22.712  26.888  42.624  1.00  0.00     0.046 C 
BRANCH   8  12
ATOM     12  N   UNL     1      25.049  26.875  40.870  1.00  0.00    -0.331 N 
ATOM     13  H   UNL     1      25.564  27.699  40.571  1.00  0.00     0.169 HD
BRANCH  12  14
ATOM     14  C   UNL     1      25.150  25.886  39.939  1.00  0.00     0.187 A 
ATOM     15  N   UNL     1      25.090  26.153  38.652  1.00  0.00    -0.220 NA
ATOM     16  S   UNL     1      25.338  24.206  40.298  1.00  0.00    -0.105 S 
ATOM     17  C   UNL     1      25.189  25.001  37.886  1.00  0.00     0.085 A 
ATOM     18  C   UNL     1      25.340  23.844  38.624  1.00  0.00     0.097 A 
BRANCH  17  19
ATOM     19  C   UNL     1      25.131  25.067  36.429  1.00  0.00     0.019 A 
ATOM     20  C   UNL     1      24.029  25.562  35.723  1.00  0.00     0.013 A 
ATOM     21  C   UNL     1      26.216  24.633  35.669  1.00  0.00     0.121 A 
ATOM     22  C   UNL     1      24.055  25.602  34.327  1.00  0.00     0.021 A 
ATOM     23  N   UNL     1      26.269  24.659  34.311  1.00  0.00    -0.264 NA
ATOM     24  C   UNL     1      25.186  25.144  33.673  1.00  0.00     0.111 A 
ENDBRANCH  17  19
ENDBRANCH  12  14
ENDBRANCH   8  12
ENDBRANCH   1   5
BRANCH   2  25
ATOM     25  C   UNL     1      29.855  24.861  45.753  1.00  0.00     0.040 A 
ATOM     26  C   UNL     1      30.437  23.705  46.281  1.00  0.00     0.014 A 
ATOM     27  C   UNL     1      30.553  26.075  45.798  1.00  0.00     0.014 A 
ATOM     28  C   UNL     1      31.723  23.754  46.821  1.00  0.00     0.006 A 
ATOM     29  C   UNL     1      31.839  26.121  46.343  1.00  0.00     0.006 A 
ATOM     30  C   UNL     1      32.442  24.959  46.848  1.00  0.00    -0.034 A 
BRANCH  30  31
ATOM     31  C   UNL     1      33.834  25.013  47.452  1.00  0.00     0.120 C 
BRANCH  31  32
ATOM     32  N   UNL     1      33.878  25.780  48.711  1.00  0.00    -0.297 NA
ATOM     33  C   UNL     1      35.172  26.473  48.847  1.00  0.00     0.100 C 
ATOM     34  C   UNL     1      33.662  24.907  49.891  1.00  0.00     0.100 C 
ATOM     35  C   UNL     1      36.403  25.555  49.087  1.00  0.00     0.099 C 
ATOM     36  C   UNL     1      34.938  24.410  50.625  1.00  0.00     0.099 C 
ATOM     37  N   UNL     1      36.081  24.260  49.717  1.00  0.00    -0.304 NA
ATOM     38  C   UNL     1      37.243  23.696  50.394  1.00  0.00     0.105 C 
ENDBRANCH  31  32
ENDBRANCH  30  31
ENDBRANCH   2  25
TORSDOF 7
ENDMDL
MODEL 5
REMARK VINA RESULT:   -10.167      6.055     13.182
REMARK INTER + INTRA:         -14.667
REMARK INTER:                 -14.798
REMARK INTRA:                   0.131
REMARK UNBOUND:                -0.340
REMARK SMILES Cc1ccc(NC(=O)c2ccc(CN3CCN(C)CC3)cc2)cc1Nc1nc(-c2cccnc2)cs1
REMARK SMILES IDX 6 1 7 2 8 3 5 5 2 6 3 7 24 8 4 9 23 10 1 11 25 12 26 14
REMARK SMILES IDX 27 15 36 16 28 17 35 18 29 19 30 20 34 21 31 22 33 23 32 24
REMARK SMILES IDX 9 25 10 26 22 27 11 28 21 29 12 30 13 31 14 32 15 33 20 34
REMARK SMILES IDX 16 35 19 36 17 37 18 38
REMARK H PARENT 6 4 25 13
ROOT
ATOM      1  N   UNL     1      33.472  27.458  46.512  1.00  0.00    -0.322 N 
ATOM      2  C   UNL     1      34.844  27.468  46.689  1.00  0.00     0.255 C 
ATOM      3  O   UNL     1      35.566  26.503  46.904  1.00  0.00    -0.269 OA
ATOM      4  H   UNL     1      33.049  28.320  46.197  1.00  0.00     0.170 HD
ENDROOT
BRANCH   1   5
ATOM      5  C   UNL     1      32.607  26.347  46.599  1.00  0.00     0.043 A 
ATOM      6  C   UNL     1      31.015  24.026  46.840  1.00  0.00    -0.027 A 
ATOM      7  C   UNL     1      32.404  23.960  47.005  1.00  0.00     0.008 A 
ATOM      8  C   UNL     1      30.423  25.262  46.520  1.00  0.00     0.045 A 
ATOM      9  C   UNL     1      33.190  25.108  46.887  1.00  0.00     0.026 A 
ATOM     10  C   UNL     1      31.227  26.411  46.407  1.00  0.00     0.052 A 
ATOM     11  C   UNL     1      30.198  22.770  46.975  1.00  0.00     0.046 C 
BRANCH   8  12
ATOM     12  N   UNL     1      29.028  25.362  46.301  1.00  0.00    -0.331 N 
ATOM     13  H   UNL     1      28.569  25.799  47.096  1.00  0.00     0.169 HD
BRANCH  12  14
ATOM     14  C   UNL     1      28.485  25.804  45.134  1.00  0.00     0.187 A 
ATOM     15  N   UNL     1      27.187  25.745  44.920  1.00  0.00    -0.220 NA
ATOM     16  S   UNL     1      29.383  26.456  43.810  1.00  0.00    -0.105 S 
ATOM     17  C   UNL     1      26.855  26.224  43.662  1.00  0.00     0.085 A 
ATOM     18  C   UNL     1      27.933  26.665  42.922  1.00  0.00     0.097 A 
BRANCH  17  19
ATOM     19  C   UNL     1      25.466  26.235  43.212  1.00  0.00     0.019 A 
ATOM     20  C   UNL     1      25.084  26.045  41.880  1.00  0.00     0.013 A 
ATOM     21  C   UNL     1      24.438  26.433  44.134  1.00  0.00     0.121 A 
ATOM     22  C   UNL     1      23.732  26.059  41.531  1.00  0.00     0.021 A 
ATOM     23  N   UNL     1      23.115  26.453  43.824  1.00  0.00    -0.264 NA
ATOM     24  C   UNL     1      22.795  26.265  42.529  1.00  0.00     0.111 A 
ENDBRANCH  17  19
ENDBRANCH  12  14
ENDBRANCH   8  12
ENDBRANCH   1   5
BRANCH   2  25
ATOM     25  C   UNL     1      35.476  28.810  46.543  1.00  0.00     0.040 A 
ATOM     26  C   UNL     1      35.347  29.481  45.323  1.00  0.00     0.014 A 
ATOM     27  C   UNL     1      36.200  29.397  47.588  1.00  0.00     0.014 A 
ATOM     28  C   UNL     1      35.910  30.747  45.160  1.00  0.00     0.006 A 
ATOM     29  C   UNL     1      36.767  30.665  47.419  1.00  0.00     0.006 A 
ATOM     30  C   UNL     1      36.616  31.357  46.208  1.00  0.00    -0.034 A 
BRANCH  30  31
ATOM     31  C   UNL     1      37.242  32.727  46.021  1.00  0.00     0.120 C 
BRANCH  31  32
ATOM     32  N   UNL     1      36.506  33.791  46.728  1.00  0.00    -0.297 NA
ATOM     33  C   UNL     1      35.127  33.893  46.214  1.00  0.00     0.100 C 
ATOM     34  C   UNL     1      37.179  35.105  46.591  1.00  0.00     0.100 C 
ATOM     35  C   UNL     1      34.990  34.434  44.765  1.00  0.00     0.099 C 
ATOM     36  C   UNL     1      36.644  36.042  45.473  1.00  0.00     0.099 C 
ATOM     37  N   UNL     1      36.106  35.295  44.329  1.00  0.00    -0.304 NA
ATOM     38  C   UNL     1      35.701  36.180  43.243  1.00  0.00     0.105 C 
ENDBRANCH  31  32
ENDBRANCH  30  31
ENDBRANCH   2  25
TORSDOF 7
ENDMDL
MODEL 6
REMARK VINA RESULT:   -10.061      3.858     12.489
REMARK INTER + INTRA:         -14.517
REMARK INTER:                 -13.943
REMARK INTRA:                  -0.574
REMARK UNBOUND:                -0.340
REMARK SMILES Cc1ccc(NC(=O)c2ccc(CN3CCN(C)CC3)cc2)cc1Nc1nc(-c2cccnc2)cs1
REMARK SMILES IDX 6 1 7 2 8 3 5 5 2 6 3 7 24 8 4 9 23 10 1 11 25 12 26 14
REMARK SMILES IDX 27 15 36 16 28 17 35 18 29 19 30 20 34 21 31 22 33 23 32 24
REMARK SMILES IDX 9 25 10 26 22 27 11 28 21 29 12 30 13 31 14 32 15 33 20 34
REMARK SMILES IDX 16 35 19 36 17 37 18 38
REMARK H PARENT 6 4 25 13
ROOT
ATOM      1  N   UNL     1      23.571  26.370  34.702  1.00  0.00    -0.322 N 
ATOM      2  C   UNL     1      24.359  25.280  35.027  1.00  0.00     0.255 C 
ATOM      3  O   UNL     1      24.824  24.451  34.254  1.00  0.00    -0.269 OA
ATOM      4  H   UNL     1      23.394  27.037  35.440  1.00  0.00     0.170 HD
ENDROOT
BRANCH   1   5
ATOM      5  C   UNL     1      23.086  26.725  33.425  1.00  0.00     0.043 A 
ATOM      6  C   UNL     1      22.115  27.258  30.827  1.00  0.00    -0.027 A 
ATOM      7  C   UNL     1      22.578  25.981  31.169  1.00  0.00     0.008 A 
ATOM      8  C   UNL     1      22.170  28.285  31.788  1.00  0.00     0.045 A 
ATOM      9  C   UNL     1      23.056  25.718  32.455  1.00  0.00     0.026 A 
ATOM     10  C   UNL     1      22.653  28.005  33.080  1.00  0.00     0.052 A 
ATOM     11  C   UNL     1      21.605  27.506  29.434  1.00  0.00     0.046 C 
BRANCH   8  12
ATOM     12  N   UNL     1      21.755  29.600  31.468  1.00  0.00    -0.331 N 
ATOM     13  H   UNL     1      20.741  29.657  31.425  1.00  0.00     0.169 HD
BRANCH  12  14
ATOM     14  C   UNL     1      22.270  30.711  32.061  1.00  0.00     0.187 A 
ATOM     15  N   UNL     1      23.469  31.157  31.749  1.00  0.00    -0.220 NA
ATOM     16  S   UNL     1      21.471  31.644  33.276  1.00  0.00    -0.105 S 
ATOM     17  C   UNL     1      23.803  32.282  32.488  1.00  0.00     0.085 A 
ATOM     18  C   UNL     1      22.821  32.694  33.366  1.00  0.00     0.097 A 
BRANCH  17  19
ATOM     19  C   UNL     1      25.098  32.932  32.311  1.00  0.00     0.019 A 
ATOM     20  C   UNL     1      26.284  32.459  32.883  1.00  0.00     0.013 A 
ATOM     21  C   UNL     1      25.199  34.082  31.528  1.00  0.00     0.121 A 
ATOM     22  C   UNL     1      27.487  33.132  32.656  1.00  0.00     0.021 A 
ATOM     23  N   UNL     1      26.353  34.758  31.291  1.00  0.00    -0.264 NA
ATOM     24  C   UNL     1      27.470  34.265  31.861  1.00  0.00     0.111 A 
ENDBRANCH  17  19
ENDBRANCH  12  14
ENDBRANCH   8  12
ENDBRANCH   1   5
BRANCH   2  25
ATOM     25  C   UNL     1      24.698  25.172  36.473  1.00  0.00     0.040 A 
ATOM     26  C   UNL     1      24.226  26.156  37.346  1.00  0.00     0.014 A 
ATOM     27  C   UNL     1      25.484  24.122  36.966  1.00  0.00     0.014 A 
ATOM     28  C   UNL     1      24.508  26.073  38.711  1.00  0.00     0.006 A 
ATOM     29  C   UNL     1      25.768  24.044  38.333  1.00  0.00     0.006 A 
ATOM     30  C   UNL     1      25.273  25.012  39.220  1.00  0.00    -0.034 A 
BRANCH  30  31
ATOM     31  C   UNL     1      25.594  24.935  40.702  1.00  0.00     0.120 C 
BRANCH  31  32
ATOM     32  N   UNL     1      25.430  26.231  41.387  1.00  0.00    -0.297 NA
ATOM     33  C   UNL     1      26.745  26.840  41.658  1.00  0.00     0.100 C 
ATOM     34  C   UNL     1      24.685  26.085  42.661  1.00  0.00     0.100 C 
ATOM     35  C   UNL     1      27.613  26.118  42.724  1.00  0.00     0.099 C 
ATOM     36  C   UNL     1      25.541  25.973  43.953  1.00  0.00     0.099 C 
ATOM     37  N   UNL     1      26.840  25.335  43.707  1.00  0.00    -0.304 NA
ATOM     38  C   UNL     1      27.593  25.140  44.942  1.00  0.00     0.105 C 
ENDBRANCH  31  32
ENDBRANCH  30  31
ENDBRANCH   2  25
TORSDOF 7
ENDMDL
