MODEL 1
REMARK VINA RESULT:    -9.184      0.000      0.000
REMARK INTER + INTRA:         -11.044
REMARK INTER:                 -10.794
REMARK INTRA:                  -0.250
REMARK UNBOUND:                -0.250
REMARK SMILES CN1C(N)=N[C@](C)(c2cc(NC(=O)c3ccc(F)cn3)ccc2F)CS1(=O)=O
REMARK SMILES IDX 8 1 9 2 10 3 21 4 22 5 23 6 24 7 6 8 25 9 5 10 26 11 3 12
REMARK SMILES IDX 27 13 2 14 28 15 4 16 7 17 1 18 11 21 12 22 13 23 14 25
REMARK SMILES IDX 20 26 15 27 19 28 16 29 17 30 18 31
REMARK H PARENT 4 19 4 20 11 24
ROOT
ATOM      1  C   UNL     1      24.723  12.492  21.029  1.00  0.00     0.018 A 
ATOM      2  C   UNL     1      24.030  12.246  22.214  1.00  0.00     0.035 A 
ATOM      3  C   UNL     1      23.393  11.051  22.460  1.00  0.00     0.042 A 
ATOM      4  C   UNL     1      23.401  10.040  21.507  1.00  0.00     0.029 A 
ATOM      5  C   UNL     1      24.087  10.265  20.326  1.00  0.00     0.042 A 
ATOM      6  C   UNL     1      24.749  11.457  20.107  1.00  0.00     0.129 A 
ATOM      7  F   UNL     1      25.440  11.641  18.952  1.00  0.00    -0.207 F 
ENDROOT
BRANCH   1   8
ATOM      8  C   UNL     1      25.421  13.821  20.789  1.00  0.00     0.105 C 
ATOM      9  C   UNL     1      26.906  13.727  20.521  1.00  0.00     0.195 C 
ATOM     10  N   UNL     1      25.164  14.778  21.864  1.00  0.00    -0.240 NA
ATOM     11  S   UNL     1      27.758  13.079  21.937  1.00  0.00     0.239 S 
ATOM     12  C   UNL     1      25.833  14.750  22.975  1.00  0.00     0.205 C 
ATOM     13  O   UNL     1      29.107  13.615  21.890  1.00  0.00    -0.206 OA
ATOM     14  N   UNL     1      26.931  13.893  23.210  1.00  0.00    -0.243 N 
ATOM     15  O   UNL     1      27.448  11.701  22.155  1.00  0.00    -0.206 OA
ATOM     16  N   UNL     1      25.544  15.582  24.023  1.00  0.00    -0.369 N 
ATOM     17  C   UNL     1      24.787  14.498  19.570  1.00  0.00     0.044 C 
ATOM     18  C   UNL     1      27.603  13.785  24.520  1.00  0.00     0.167 C 
ATOM     19  H   UNL     1      24.795  16.217  23.955  1.00  0.00     0.159 HD
ATOM     20  H   UNL     1      26.086  15.545  24.845  1.00  0.00     0.159 HD
ENDBRANCH   1   8
BRANCH   3  21
ATOM     21  N   UNL     1      22.730  10.934  23.688  1.00  0.00    -0.321 N 
ATOM     22  C   UNL     1      23.227  11.179  24.956  1.00  0.00     0.274 C 
ATOM     23  O   UNL     1      24.398  11.420  25.220  1.00  0.00    -0.267 OA
ATOM     24  H   UNL     1      21.791  10.642  23.644  1.00  0.00     0.170 HD
BRANCH  22  25
ATOM     25  C   UNL     1      22.218  11.170  26.044  1.00  0.00     0.128 A 
ATOM     26  N   UNL     1      22.641  11.571  27.247  1.00  0.00    -0.248 NA
ATOM     27  C   UNL     1      20.920  10.771  25.779  1.00  0.00     0.037 A 
ATOM     28  C   UNL     1      21.746  11.568  28.249  1.00  0.00     0.151 A 
ATOM     29  C   UNL     1      20.020  10.784  26.830  1.00  0.00     0.043 A 
ATOM     30  C   UNL     1      20.435  11.183  28.086  1.00  0.00     0.141 A 
ATOM     31  F   UNL     1      19.595  11.221  29.135  1.00  0.00    -0.205 F 
ENDBRANCH  22  25
ENDBRANCH   3  21
TORSDOF 3
ENDMDL
MODEL 2
REMARK VINA RESULT:    -8.593      1.693      1.992
REMARK INTER + INTRA:         -10.350
REMARK INTER:                 -10.035
REMARK INTRA:                  -0.315
REMARK UNBOUND:                -0.250
REMARK SMILES CN1C(N)=N[C@](C)(c2cc(NC(=O)c3ccc(F)cn3)ccc2F)CS1(=O)=O
REMARK SMILES IDX 8 1 9 2 10 3 21 4 22 5 23 6 24 7 6 8 25 9 5 10 26 11 3 12
REMARK SMILES IDX 27 13 2 14 28 15 4 16 7 17 1 18 11 21 12 22 13 23 14 25
REMARK SMILES IDX 20 26 15 27 19 28 16 29 17 30 18 31
REMARK H PARENT 4 19 4 20 11 24
ROOT
ATOM      1  C   UNL     1      25.013  12.147  21.048  1.00  0.00     0.018 A 
ATOM      2  C   UNL     1      24.603  12.280  22.374  1.00  0.00     0.035 A 
ATOM      3  C   UNL     1      23.636  11.474  22.930  1.00  0.00     0.042 A 
ATOM      4  C   UNL     1      23.010  10.497  22.166  1.00  0.00     0.029 A 
ATOM      5  C   UNL     1      23.407  10.348  20.849  1.00  0.00     0.042 A 
ATOM      6  C   UNL     1      24.401  11.143  20.314  1.00  0.00     0.129 A 
ATOM      7  F   UNL     1      24.793  10.958  19.027  1.00  0.00    -0.207 F 
ENDROOT
BRANCH   1   8
ATOM      8  C   UNL     1      26.087  13.052  20.464  1.00  0.00     0.105 C 
ATOM      9  C   UNL     1      27.182  12.338  19.703  1.00  0.00     0.195 C 
ATOM     10  N   UNL     1      26.670  13.934  21.473  1.00  0.00    -0.240 NA
ATOM     11  S   UNL     1      28.103  11.271  20.782  1.00  0.00     0.239 S 
ATOM     12  C   UNL     1      27.603  13.526  22.277  1.00  0.00     0.205 C 
ATOM     13  O   UNL     1      29.436  11.164  20.218  1.00  0.00    -0.206 OA
ATOM     14  N   UNL     1      28.220  12.259  22.187  1.00  0.00    -0.243 N 
ATOM     15  O   UNL     1      27.320  10.155  21.213  1.00  0.00    -0.206 OA
ATOM     16  N   UNL     1      28.096  14.313  23.284  1.00  0.00    -0.369 N 
ATOM     17  C   UNL     1      25.429  14.033  19.489  1.00  0.00     0.044 C 
ATOM     18  C   UNL     1      29.190  11.763  23.183  1.00  0.00     0.167 C 
ATOM     19  H   UNL     1      27.729  15.216  23.427  1.00  0.00     0.159 HD
ATOM     20  H   UNL     1      28.817  13.977  23.864  1.00  0.00     0.159 HD
ENDBRANCH   1   8
BRANCH   3  21
ATOM     21  N   UNL     1      23.315  11.713  24.272  1.00  0.00    -0.321 N 
ATOM     22  C   UNL     1      22.457  12.667  24.791  1.00  0.00     0.274 C 
ATOM     23  O   UNL     1      21.926  13.562  24.146  1.00  0.00    -0.267 OA
ATOM     24  H   UNL     1      23.755  11.128  24.931  1.00  0.00     0.170 HD
BRANCH  22  25
ATOM     25  C   UNL     1      22.162  12.533  26.238  1.00  0.00     0.128 A 
ATOM     26  N   UNL     1      21.172  11.697  26.567  1.00  0.00    -0.248 NA
ATOM     27  C   UNL     1      22.904  13.247  27.164  1.00  0.00     0.037 A 
ATOM     28  C   UNL     1      20.884  11.562  27.872  1.00  0.00     0.151 A 
ATOM     29  C   UNL     1      22.587  13.083  28.501  1.00  0.00     0.043 A 
ATOM     30  C   UNL     1      21.560  12.233  28.865  1.00  0.00     0.141 A 
ATOM     31  F   UNL     1      21.223  12.035  30.151  1.00  0.00    -0.205 F 
ENDBRANCH  22  25
ENDBRANCH   3  21
TORSDOF 3
ENDMDL
MODEL 3
REMARK VINA RESULT:    -8.560      2.398      3.798
REMARK INTER + INTRA:         -10.311
REMARK INTER:                 -10.038
REMARK INTRA:                  -0.272
REMARK UNBOUND:                -0.250
REMARK SMILES CN1C(N)=N[C@](C)(c2cc(NC(=O)c3ccc(F)cn3)ccc2F)CS1(=O)=O
REMARK SMILES IDX 8 1 9 2 10 3 21 4 22 5 23 6 24 7 6 8 25 9 5 10 26 11 3 12
REMARK SMILES IDX 27 13 2 14 28 15 4 16 7 17 1 18 11 21 12 22 13 23 14 25
REMARK SMILES IDX 20 26 15 27 19 28 16 29 17 30 18 31
REMARK H PARENT 4 19 4 20 11 24
ROOT
ATOM      1  C   UNL     1      26.935  13.067  22.927  1.00  0.00     0.018 A 
ATOM      2  C   UNL     1      25.853  12.703  23.727  1.00  0.00     0.035 A 
ATOM      3  C   UNL     1      25.664  13.219  24.989  1.00  0.00     0.042 A 
ATOM      4  C   UNL     1      26.576  14.119  25.524  1.00  0.00     0.029 A 
ATOM      5  C   UNL     1      27.655  14.495  24.743  1.00  0.00     0.042 A 
ATOM      6  C   UNL     1      27.814  13.994  23.466  1.00  0.00     0.129 A 
ATOM      7  F   UNL     1      28.865  14.401  22.709  1.00  0.00    -0.207 F 
ENDROOT
BRANCH   1   8
ATOM      8  C   UNL     1      27.115  12.482  21.534  1.00  0.00     0.105 C 
ATOM      9  C   UNL     1      27.187  13.499  20.417  1.00  0.00     0.195 C 
ATOM     10  N   UNL     1      26.104  11.471  21.230  1.00  0.00    -0.240 NA
ATOM     11  S   UNL     1      25.658  14.391  20.281  1.00  0.00     0.239 S 
ATOM     12  C   UNL     1      24.916  11.797  20.823  1.00  0.00     0.205 C 
ATOM     13  O   UNL     1      25.545  14.809  18.895  1.00  0.00    -0.206 OA
ATOM     14  N   UNL     1      24.522  13.121  20.525  1.00  0.00    -0.243 N 
ATOM     15  O   UNL     1      25.451  15.255  21.401  1.00  0.00    -0.206 OA
ATOM     16  N   UNL     1      23.932  10.866  20.619  1.00  0.00    -0.369 N 
ATOM     17  C   UNL     1      28.421  11.683  21.499  1.00  0.00     0.044 C 
ATOM     18  C   UNL     1      23.134  13.490  20.184  1.00  0.00     0.167 C 
ATOM     19  H   UNL     1      24.111   9.915  20.798  1.00  0.00     0.159 HD
ATOM     20  H   UNL     1      23.047  11.148  20.292  1.00  0.00     0.159 HD
ENDBRANCH   1   8
BRANCH   3  21
ATOM     21  N   UNL     1      24.538  12.768  25.689  1.00  0.00    -0.321 N 
ATOM     22  C   UNL     1      23.209  12.830  25.307  1.00  0.00     0.274 C 
ATOM     23  O   UNL     1      22.787  13.422  24.322  1.00  0.00    -0.267 OA
ATOM     24  H   UNL     1      24.714  12.353  26.564  1.00  0.00     0.170 HD
BRANCH  22  25
ATOM     25  C   UNL     1      22.267  12.077  26.169  1.00  0.00     0.128 A 
ATOM     26  N   UNL     1      22.607  11.956  27.456  1.00  0.00    -0.248 NA
ATOM     27  C   UNL     1      21.104  11.553  25.629  1.00  0.00     0.037 A 
ATOM     28  C   UNL     1      21.770  11.274  28.255  1.00  0.00     0.151 A 
ATOM     29  C   UNL     1      20.260  10.861  26.479  1.00  0.00     0.043 A 
ATOM     30  C   UNL     1      20.595  10.712  27.811  1.00  0.00     0.141 A 
ATOM     31  F   UNL     1      19.802  10.057  28.675  1.00  0.00    -0.205 F 
ENDBRANCH  22  25
ENDBRANCH   3  21
TORSDOF 3
ENDMDL
MODEL 4
REMARK VINA RESULT:    -8.395      1.443      1.514
REMARK INTER + INTRA:         -10.117
REMARK INTER:                  -9.981
REMARK INTRA:                  -0.136
REMARK UNBOUND:                -0.250
REMARK SMILES CN1C(N)=N[C@](C)(c2cc(NC(=O)c3ccc(F)cn3)ccc2F)CS1(=O)=O
REMARK SMILES IDX 8 1 9 2 10 3 21 4 22 5 23 6 24 7 6 8 25 9 5 10 26 11 3 12
REMARK SMILES IDX 27 13 2 14 28 15 4 16 7 17 1 18 11 21 12 22 13 23 14 25
REMARK SMILES IDX 20 26 15 27 19 28 16 29 17 30 18 31
REMARK H PARENT 4 19 4 20 11 24
ROOT
ATOM      1  C   UNL     1      26.121  13.046  21.733  1.00  0.00     0.018 A 
ATOM      2  C   UNL     1      25.306  12.793  22.835  1.00  0.00     0.035 A 
ATOM      3  C   UNL     1      24.606  11.617  22.979  1.00  0.00     0.042 A 
ATOM      4  C   UNL     1      24.674  10.634  21.999  1.00  0.00     0.029 A 
ATOM      5  C   UNL     1      25.480  10.867  20.899  1.00  0.00     0.042 A 
ATOM      6  C   UNL     1      26.202  12.038  20.784  1.00  0.00     0.129 A 
ATOM      7  F   UNL     1      27.009  12.230  19.709  1.00  0.00    -0.207 F 
ENDROOT
BRANCH   1   8
ATOM      8  C   UNL     1      26.885  14.355  21.604  1.00  0.00     0.105 C 
ATOM      9  C   UNL     1      28.382  14.211  21.449  1.00  0.00     0.195 C 
ATOM     10  N   UNL     1      26.580  15.278  22.697  1.00  0.00    -0.240 NA
ATOM     11  S   UNL     1      29.095  13.473  22.898  1.00  0.00     0.239 S 
ATOM     12  C   UNL     1      27.158  15.178  23.854  1.00  0.00     0.205 C 
ATOM     13  O   UNL     1      30.462  13.955  22.978  1.00  0.00    -0.206 OA
ATOM     14  N   UNL     1      28.201  14.268  24.136  1.00  0.00    -0.243 N 
ATOM     15  O   UNL     1      28.717  12.101  23.031  1.00  0.00    -0.206 OA
ATOM     16  N   UNL     1      26.818  15.978  24.912  1.00  0.00    -0.369 N 
ATOM     17  C   UNL     1      26.376  15.105  20.370  1.00  0.00     0.044 C 
ATOM     18  C   UNL     1      28.762  14.081  25.488  1.00  0.00     0.167 C 
ATOM     19  H   UNL     1      26.101  16.646  24.814  1.00  0.00     0.159 HD
ATOM     20  H   UNL     1      27.291  15.887  25.771  1.00  0.00     0.159 HD
ENDBRANCH   1   8
BRANCH   3  21
ATOM     21  N   UNL     1      23.822  11.490  24.133  1.00  0.00    -0.321 N 
ATOM     22  C   UNL     1      22.811  12.323  24.578  1.00  0.00     0.274 C 
ATOM     23  O   UNL     1      22.520  13.404  24.083  1.00  0.00    -0.267 OA
ATOM     24  H   UNL     1      24.015  10.708  24.699  1.00  0.00     0.170 HD
BRANCH  22  25
ATOM     25  C   UNL     1      22.024  11.807  25.724  1.00  0.00     0.128 A 
ATOM     26  N   UNL     1      22.576  11.949  26.934  1.00  0.00    -0.248 NA
ATOM     27  C   UNL     1      20.786  11.228  25.507  1.00  0.00     0.037 A 
ATOM     28  C   UNL     1      21.883  11.485  27.987  1.00  0.00     0.151 A 
ATOM     29  C   UNL     1      20.094  10.765  26.613  1.00  0.00     0.043 A 
ATOM     30  C   UNL     1      20.648  10.889  27.872  1.00  0.00     0.141 A 
ATOM     31  F   UNL     1      20.010  10.463  28.976  1.00  0.00    -0.205 F 
ENDBRANCH  22  25
ENDBRANCH   3  21
TORSDOF 3
ENDMDL
MODEL 5
REMARK VINA RESULT:    -8.338      3.627      7.211
REMARK INTER + INTRA:         -10.050
REMARK INTER:                 -10.353
REMARK INTRA:                   0.303
REMARK UNBOUND:                -0.250
REMARK SMILES CN1C(N)=N[C@](C)(c2cc(NC(=O)c3ccc(F)cn3)ccc2F)CS1(=O)=O
REMARK SMILES IDX 8 1 9 2 10 3 21 4 22 5 23 6 24 7 6 8 25 9 5 10 26 11 3 12
REMARK SMILES IDX 27 13 2 14 28 15 4 16 7 17 1 18 11 21 12 22 13 23 14 25
REMARK SMILES IDX 20 26 15 27 19 28 16 29 17 30 18 31
REMARK H PARENT 4 19 4 20 11 24
ROOT
ATOM      1  C   UNL     1      26.171  12.474  21.111  1.00  0.00     0.018 A 
ATOM      2  C   UNL     1      27.013  13.355  21.789  1.00  0.00     0.035 A 
ATOM      3  C   UNL     1      28.350  13.092  21.985  1.00  0.00     0.042 A 
ATOM      4  C   UNL     1      28.909  11.908  21.523  1.00  0.00     0.029 A 
ATOM      5  C   UNL     1      28.089  11.023  20.844  1.00  0.00     0.042 A 
ATOM      6  C   UNL     1      26.757  11.314  20.627  1.00  0.00     0.129 A 
ATOM      7  F   UNL     1      25.981  10.443  19.933  1.00  0.00    -0.207 F 
ENDROOT
BRANCH   1   8
ATOM      8  C   UNL     1      24.699  12.795  20.908  1.00  0.00     0.105 C 
ATOM      9  C   UNL     1      24.089  13.699  21.956  1.00  0.00     0.195 C 
ATOM     10  N   UNL     1      23.890  11.586  20.756  1.00  0.00    -0.240 NA
ATOM     11  S   UNL     1      24.112  12.916  23.549  1.00  0.00     0.239 S 
ATOM     12  C   UNL     1      23.490  10.901  21.782  1.00  0.00     0.205 C 
ATOM     13  O   UNL     1      22.999  13.471  24.299  1.00  0.00    -0.206 OA
ATOM     14  N   UNL     1      23.685  11.304  23.121  1.00  0.00    -0.243 N 
ATOM     15  O   UNL     1      25.442  12.794  24.058  1.00  0.00    -0.206 OA
ATOM     16  N   UNL     1      22.808   9.720  21.651  1.00  0.00    -0.369 N 
ATOM     17  C   UNL     1      24.527  13.494  19.557  1.00  0.00     0.044 C 
ATOM     18  C   UNL     1      23.335  10.455  24.277  1.00  0.00     0.167 C 
ATOM     19  H   UNL     1      22.622   9.356  20.756  1.00  0.00     0.159 HD
ATOM     20  H   UNL     1      22.503   9.236  22.453  1.00  0.00     0.159 HD
ENDBRANCH   1   8
BRANCH   3  21
ATOM     21  N   UNL     1      29.083  14.059  22.684  1.00  0.00    -0.321 N 
ATOM     22  C   UNL     1      29.319  14.137  24.045  1.00  0.00     0.274 C 
ATOM     23  O   UNL     1      28.801  13.421  24.892  1.00  0.00    -0.267 OA
ATOM     24  H   UNL     1      29.482  14.774  22.138  1.00  0.00     0.170 HD
BRANCH  22  25
ATOM     25  C   UNL     1      30.310  15.160  24.459  1.00  0.00     0.128 A 
ATOM     26  N   UNL     1      31.584  14.919  24.130  1.00  0.00    -0.248 NA
ATOM     27  C   UNL     1      29.893  16.293  25.136  1.00  0.00     0.037 A 
ATOM     28  C   UNL     1      32.500  15.830  24.498  1.00  0.00     0.151 A 
ATOM     29  C   UNL     1      30.859  17.215  25.496  1.00  0.00     0.043 A 
ATOM     30  C   UNL     1      32.184  16.983  25.179  1.00  0.00     0.141 A 
ATOM     31  F   UNL     1      33.155  17.854  25.500  1.00  0.00    -0.205 F 
ENDBRANCH  22  25
ENDBRANCH   3  21
TORSDOF 3
ENDMDL
MODEL 6
REMARK VINA RESULT:    -8.332      3.599      8.543
REMARK INTER + INTRA:         -10.043
REMARK INTER:                 -10.399
REMARK INTRA:                   0.356
REMARK UNBOUND:                -0.250
REMARK SMILES CN1C(N)=N[C@](C)(c2cc(NC(=O)c3ccc(F)cn3)ccc2F)CS1(=O)=O
REMARK SMILES IDX 8 1 9 2 10 3 21 4 22 5 23 6 24 7 6 8 25 9 5 10 26 11 3 12
REMARK SMILES IDX 27 13 2 14 28 15 4 16 7 17 1 18 11 21 12 22 13 23 14 25
REMARK SMILES IDX 20 26 15 27 19 28 16 29 17 30 18 31
REMARK H PARENT 4 19 4 20 11 24
ROOT
ATOM      1  C   UNL     1      20.963  12.082  27.406  1.00  0.00     0.018 A 
ATOM      2  C   UNL     1      21.574  11.994  26.156  1.00  0.00     0.035 A 
ATOM      3  C   UNL     1      22.737  12.666  25.856  1.00  0.00     0.042 A 
ATOM      4  C   UNL     1      23.338  13.488  26.801  1.00  0.00     0.029 A 
ATOM      5  C   UNL     1      22.748  13.584  28.049  1.00  0.00     0.042 A 
ATOM      6  C   UNL     1      21.598  12.879  28.346  1.00  0.00     0.129 A 
ATOM      7  F   UNL     1      21.055  12.968  29.587  1.00  0.00    -0.207 F 
ENDROOT
BRANCH   1   8
ATOM      8  C   UNL     1      19.680  11.324  27.708  1.00  0.00     0.105 C 
ATOM      9  C   UNL     1      18.869  10.927  26.494  1.00  0.00     0.195 C 
ATOM     10  N   UNL     1      18.834  12.036  28.665  1.00  0.00    -0.240 NA
ATOM     11  S   UNL     1      18.290  12.365  25.629  1.00  0.00     0.239 S 
ATOM     12  C   UNL     1      18.050  13.002  28.295  1.00  0.00     0.205 C 
ATOM     13  O   UNL     1      17.065  11.976  24.954  1.00  0.00    -0.206 OA
ATOM     14  N   UNL     1      17.848  13.377  26.948  1.00  0.00    -0.243 N 
ATOM     15  O   UNL     1      19.364  13.070  25.001  1.00  0.00    -0.206 OA
ATOM     16  N   UNL     1      17.320  13.734  29.192  1.00  0.00    -0.369 N 
ATOM     17  C   UNL     1      20.031  10.034  28.454  1.00  0.00     0.044 C 
ATOM     18  C   UNL     1      17.051  14.556  26.553  1.00  0.00     0.167 C 
ATOM     19  H   UNL     1      17.394  13.547  30.156  1.00  0.00     0.159 HD
ATOM     20  H   UNL     1      16.722  14.448  28.874  1.00  0.00     0.159 HD
ENDBRANCH   1   8
BRANCH   3  21
ATOM     21  N   UNL     1      23.246  12.494  24.562  1.00  0.00    -0.321 N 
ATOM     22  C   UNL     1      23.097  13.324  23.465  1.00  0.00     0.274 C 
ATOM     23  O   UNL     1      22.369  14.307  23.419  1.00  0.00    -0.267 OA
ATOM     24  H   UNL     1      23.777  11.678  24.415  1.00  0.00     0.170 HD
BRANCH  22  25
ATOM     25  C   UNL     1      23.932  12.976  22.290  1.00  0.00     0.128 A 
ATOM     26  N   UNL     1      25.185  12.587  22.547  1.00  0.00    -0.248 NA
ATOM     27  C   UNL     1      23.398  13.053  21.016  1.00  0.00     0.037 A 
ATOM     28  C   UNL     1      25.962  12.270  21.498  1.00  0.00     0.151 A 
ATOM     29  C   UNL     1      24.221  12.715  19.956  1.00  0.00     0.043 A 
ATOM     30  C   UNL     1      25.524  12.322  20.194  1.00  0.00     0.141 A 
ATOM     31  F   UNL     1      26.356  11.975  19.198  1.00  0.00    -0.205 F 
ENDBRANCH  22  25
ENDBRANCH   3  21
TORSDOF 3
ENDMDL
MODEL 7
REMARK VINA RESULT:    -8.220      2.617      3.948
REMARK INTER + INTRA:          -9.911
REMARK INTER:                 -10.034
REMARK INTRA:                   0.123
REMARK UNBOUND:                -0.250
REMARK SMILES CN1C(N)=N[C@](C)(c2cc(NC(=O)c3ccc(F)cn3)ccc2F)CS1(=O)=O
REMARK SMILES IDX 8 1 9 2 10 3 21 4 22 5 23 6 24 7 6 8 25 9 5 10 26 11 3 12
REMARK SMILES IDX 27 13 2 14 28 15 4 16 7 17 1 18 11 21 12 22 13 23 14 25
REMARK SMILES IDX 20 26 15 27 19 28 16 29 17 30 18 31
REMARK H PARENT 4 19 4 20 11 24
ROOT
ATOM      1  C   UNL     1      26.814  13.052  23.034  1.00  0.00     0.018 A 
ATOM      2  C   UNL     1      25.626  12.645  23.639  1.00  0.00     0.035 A 
ATOM      3  C   UNL     1      25.280  13.030  24.915  1.00  0.00     0.042 A 
ATOM      4  C   UNL     1      26.132  13.835  25.662  1.00  0.00     0.029 A 
ATOM      5  C   UNL     1      27.314  14.251  25.075  1.00  0.00     0.042 A 
ATOM      6  C   UNL     1      27.632  13.883  23.783  1.00  0.00     0.129 A 
ATOM      7  F   UNL     1      28.785  14.329  23.220  1.00  0.00    -0.207 F 
ENDROOT
BRANCH   1   8
ATOM      8  C   UNL     1      27.166  12.611  21.621  1.00  0.00     0.105 C 
ATOM      9  C   UNL     1      27.247  13.727  20.604  1.00  0.00     0.195 C 
ATOM     10  N   UNL     1      26.278  11.555  21.139  1.00  0.00    -0.240 NA
ATOM     11  S   UNL     1      25.664  14.503  20.397  1.00  0.00     0.239 S 
ATOM     12  C   UNL     1      25.107  11.820  20.649  1.00  0.00     0.205 C 
ATOM     13  O   UNL     1      25.636  15.034  19.046  1.00  0.00    -0.206 OA
ATOM     14  N   UNL     1      24.626  13.129  20.426  1.00  0.00    -0.243 N 
ATOM     15  O   UNL     1      25.283  15.243  21.560  1.00  0.00    -0.206 OA
ATOM     16  N   UNL     1      24.231  10.836  20.275  1.00  0.00    -0.369 N 
ATOM     17  C   UNL     1      28.535  11.925  21.645  1.00  0.00     0.044 C 
ATOM     18  C   UNL     1      23.247  13.416  19.985  1.00  0.00     0.167 C 
ATOM     19  H   UNL     1      24.476   9.889  20.392  1.00  0.00     0.159 HD
ATOM     20  H   UNL     1      23.357  11.074  19.890  1.00  0.00     0.159 HD
ENDBRANCH   1   8
BRANCH   3  21
ATOM     21  N   UNL     1      24.060  12.549  25.407  1.00  0.00    -0.321 N 
ATOM     22  C   UNL     1      23.208  13.147  26.319  1.00  0.00     0.274 C 
ATOM     23  O   UNL     1      23.457  14.163  26.954  1.00  0.00    -0.267 OA
ATOM     24  H   UNL     1      23.771  11.675  25.059  1.00  0.00     0.170 HD
BRANCH  22  25
ATOM     25  C   UNL     1      21.889  12.488  26.479  1.00  0.00     0.128 A 
ATOM     26  N   UNL     1      20.930  12.866  25.627  1.00  0.00    -0.248 NA
ATOM     27  C   UNL     1      21.709  11.533  27.464  1.00  0.00     0.037 A 
ATOM     28  C   UNL     1      19.725  12.286  25.755  1.00  0.00     0.151 A 
ATOM     29  C   UNL     1      20.458  10.949  27.567  1.00  0.00     0.043 A 
ATOM     30  C   UNL     1      19.447  11.331  26.706  1.00  0.00     0.141 A 
ATOM     31  F   UNL     1      18.220  10.786  26.763  1.00  0.00    -0.205 F 
ENDBRANCH  22  25
ENDBRANCH   3  21
TORSDOF 3
ENDMDL
MODEL 8
REMARK VINA RESULT:    -8.146      2.624      3.127
REMARK INTER + INTRA:          -9.824
REMARK INTER:                 -10.122
REMARK INTRA:                   0.298
REMARK UNBOUND:                -0.250
REMARK SMILES CN1C(N)=N[C@](C)(c2cc(NC(=O)c3ccc(F)cn3)ccc2F)CS1(=O)=O
REMARK SMILES IDX 8 1 9 2 10 3 21 4 22 5 23 6 24 7 6 8 25 9 5 10 26 11 3 12
REMARK SMILES IDX 27 13 2 14 28 15 4 16 7 17 1 18 11 21 12 22 13 23 14 25
REMARK SMILES IDX 20 26 15 27 19 28 16 29 17 30 18 31
REMARK H PARENT 4 19 4 20 11 24
ROOT
ATOM      1  C   UNL     1      26.474  13.593  22.717  1.00  0.00     0.018 A 
ATOM      2  C   UNL     1      25.630  13.023  23.668  1.00  0.00     0.035 A 
ATOM      3  C   UNL     1      24.267  13.212  23.651  1.00  0.00     0.042 A 
ATOM      4  C   UNL     1      23.680  14.011  22.678  1.00  0.00     0.029 A 
ATOM      5  C   UNL     1      24.502  14.582  21.723  1.00  0.00     0.042 A 
ATOM      6  C   UNL     1      25.864  14.357  21.734  1.00  0.00     0.129 A 
ATOM      7  F   UNL     1      26.646  14.906  20.768  1.00  0.00    -0.207 F 
ENDROOT
BRANCH   1   8
ATOM      8  C   UNL     1      27.977  13.362  22.761  1.00  0.00     0.105 C 
ATOM      9  C   UNL     1      28.534  13.033  24.128  1.00  0.00     0.195 C 
ATOM     10  N   UNL     1      28.720  14.473  22.169  1.00  0.00    -0.240 NA
ATOM     11  S   UNL     1      28.306  14.396  25.242  1.00  0.00     0.239 S 
ATOM     12  C   UNL     1      28.974  15.555  22.838  1.00  0.00     0.205 C 
ATOM     13  O   UNL     1      29.372  14.309  26.225  1.00  0.00    -0.206 OA
ATOM     14  N   UNL     1      28.673  15.722  24.208  1.00  0.00    -0.243 N 
ATOM     15  O   UNL     1      26.927  14.586  25.567  1.00  0.00    -0.206 OA
ATOM     16  N   UNL     1      29.591  16.638  22.270  1.00  0.00    -0.369 N 
ATOM     17  C   UNL     1      28.324  12.189  21.840  1.00  0.00     0.044 C 
ATOM     18  C   UNL     1      28.855  17.001  24.922  1.00  0.00     0.167 C 
ATOM     19  H   UNL     1      29.842  16.617  21.318  1.00  0.00     0.159 HD
ATOM     20  H   UNL     1      29.785  17.436  22.813  1.00  0.00     0.159 HD
ENDBRANCH   1   8
BRANCH   3  21
ATOM     21  N   UNL     1      23.533  12.585  24.667  1.00  0.00    -0.321 N 
ATOM     22  C   UNL     1      23.281  13.041  25.948  1.00  0.00     0.274 C 
ATOM     23  O   UNL     1      23.782  14.038  26.453  1.00  0.00    -0.267 OA
ATOM     24  H   UNL     1      23.147  11.708  24.439  1.00  0.00     0.170 HD
BRANCH  22  25
ATOM     25  C   UNL     1      22.294  12.248  26.720  1.00  0.00     0.128 A 
ATOM     26  N   UNL     1      22.628  11.949  27.980  1.00  0.00    -0.248 NA
ATOM     27  C   UNL     1      21.100  11.868  26.131  1.00  0.00     0.037 A 
ATOM     28  C   UNL     1      21.752  11.227  28.698  1.00  0.00     0.151 A 
ATOM     29  C   UNL     1      20.215  11.130  26.898  1.00  0.00     0.043 A 
ATOM     30  C   UNL     1      20.543  10.799  28.198  1.00  0.00     0.141 A 
ATOM     31  F   UNL     1      19.712  10.092  28.984  1.00  0.00    -0.205 F 
ENDBRANCH  22  25
ENDBRANCH   3  21
TORSDOF 3
ENDMDL
MODEL 9
REMARK VINA RESULT:    -7.936      1.907      2.504
REMARK INTER + INTRA:          -9.577
REMARK INTER:                 -10.452
REMARK INTRA:                   0.875
REMARK UNBOUND:                -0.250
REMARK SMILES CN1C(N)=N[C@](C)(c2cc(NC(=O)c3ccc(F)cn3)ccc2F)CS1(=O)=O
REMARK SMILES IDX 8 1 9 2 10 3 21 4 22 5 23 6 24 7 6 8 25 9 5 10 26 11 3 12
REMARK SMILES IDX 27 13 2 14 28 15 4 16 7 17 1 18 11 21 12 22 13 23 14 25
REMARK SMILES IDX 20 26 15 27 19 28 16 29 17 30 18 31
REMARK H PARENT 4 19 4 20 11 24
ROOT
ATOM      1  C   UNL     1      25.598  11.720  21.277  1.00  0.00     0.018 A 
ATOM      2  C   UNL     1      25.098  11.847  22.572  1.00  0.00     0.035 A 
ATOM      3  C   UNL     1      23.840  11.411  22.922  1.00  0.00     0.042 A 
ATOM      4  C   UNL     1      23.004  10.840  21.971  1.00  0.00     0.029 A 
ATOM      5  C   UNL     1      23.485  10.704  20.680  1.00  0.00     0.042 A 
ATOM      6  C   UNL     1      24.761  11.116  20.352  1.00  0.00     0.129 A 
ATOM      7  F   UNL     1      25.220  10.943  19.085  1.00  0.00    -0.207 F 
ENDROOT
BRANCH   1   8
ATOM      8  C   UNL     1      26.994  12.209  20.923  1.00  0.00     0.105 C 
ATOM      9  C   UNL     1      27.706  12.965  22.022  1.00  0.00     0.195 C 
ATOM     10  N   UNL     1      27.005  12.990  19.687  1.00  0.00    -0.240 NA
ATOM     11  S   UNL     1      26.844  14.468  22.410  1.00  0.00     0.239 S 
ATOM     12  C   UNL     1      26.678  14.245  19.672  1.00  0.00     0.205 C 
ATOM     13  O   UNL     1      27.838  15.398  22.913  1.00  0.00    -0.206 OA
ATOM     14  N   UNL     1      26.400  14.999  20.833  1.00  0.00    -0.243 N 
ATOM     15  O   UNL     1      25.591  14.207  23.048  1.00  0.00    -0.206 OA
ATOM     16  N   UNL     1      26.598  14.965  18.510  1.00  0.00    -0.369 N 
ATOM     17  C   UNL     1      27.866  11.000  20.573  1.00  0.00     0.044 C 
ATOM     18  C   UNL     1      25.909  16.391  20.791  1.00  0.00     0.167 C 
ATOM     19  H   UNL     1      26.775  14.527  17.646  1.00  0.00     0.159 HD
ATOM     20  H   UNL     1      26.365  15.921  18.538  1.00  0.00     0.159 HD
ENDBRANCH   1   8
BRANCH   3  21
ATOM     21  N   UNL     1      23.458  11.600  24.257  1.00  0.00    -0.321 N 
ATOM     22  C   UNL     1      22.631  12.577  24.781  1.00  0.00     0.274 C 
ATOM     23  O   UNL     1      22.191  13.536  24.160  1.00  0.00    -0.267 OA
ATOM     24  H   UNL     1      23.826  10.955  24.903  1.00  0.00     0.170 HD
BRANCH  22  25
ATOM     25  C   UNL     1      22.248  12.387  26.201  1.00  0.00     0.128 A 
ATOM     26  N   UNL     1      22.553  13.386  27.037  1.00  0.00    -0.248 NA
ATOM     27  C   UNL     1      21.602  11.227  26.593  1.00  0.00     0.037 A 
ATOM     28  C   UNL     1      22.219  13.234  28.329  1.00  0.00     0.151 A 
ATOM     29  C   UNL     1      21.266  11.103  27.930  1.00  0.00     0.043 A 
ATOM     30  C   UNL     1      21.581  12.116  28.815  1.00  0.00     0.141 A 
ATOM     31  F   UNL     1      21.266  12.044  30.120  1.00  0.00    -0.205 F 
ENDBRANCH  22  25
ENDBRANCH   3  21
TORSDOF 3
ENDMDL
MODEL 10
REMARK VINA RESULT:    -7.688      5.022      8.310
REMARK INTER + INTRA:          -9.286
REMARK INTER:                  -9.505
REMARK INTRA:                   0.218
REMARK UNBOUND:                -0.250
REMARK SMILES CN1C(N)=N[C@](C)(c2cc(NC(=O)c3ccc(F)cn3)ccc2F)CS1(=O)=O
REMARK SMILES IDX 8 1 9 2 10 3 21 4 22 5 23 6 24 7 6 8 25 9 5 10 26 11 3 12
REMARK SMILES IDX 27 13 2 14 28 15 4 16 7 17 1 18 11 21 12 22 13 23 14 25
REMARK SMILES IDX 20 26 15 27 19 28 16 29 17 30 18 31
REMARK H PARENT 4 19 4 20 11 24
ROOT
ATOM      1  C   UNL     1      19.733  11.442  27.421  1.00  0.00     0.018 A 
ATOM      2  C   UNL     1      18.775  10.905  26.563  1.00  0.00     0.035 A 
ATOM      3  C   UNL     1      17.557  11.509  26.348  1.00  0.00     0.042 A 
ATOM      4  C   UNL     1      17.228  12.684  27.011  1.00  0.00     0.029 A 
ATOM      5  C   UNL     1      18.168  13.234  27.864  1.00  0.00     0.042 A 
ATOM      6  C   UNL     1      19.399  12.634  28.045  1.00  0.00     0.129 A 
ATOM      7  F   UNL     1      20.315  13.210  28.866  1.00  0.00    -0.207 F 
ENDROOT
BRANCH   1   8
ATOM      8  C   UNL     1      21.071  10.753  27.635  1.00  0.00     0.105 C 
ATOM      9  C   UNL     1      22.265  11.679  27.709  1.00  0.00     0.195 C 
ATOM     10  N   UNL     1      21.311   9.702  26.647  1.00  0.00    -0.240 NA
ATOM     11  S   UNL     1      22.495  12.529  26.168  1.00  0.00     0.239 S 
ATOM     12  C   UNL     1      21.761   9.973  25.461  1.00  0.00     0.205 C 
ATOM     13  O   UNL     1      23.911  12.835  26.071  1.00  0.00    -0.206 OA
ATOM     14  N   UNL     1      22.169  11.261  25.049  1.00  0.00    -0.243 N 
ATOM     15  O   UNL     1      21.450  13.475  25.926  1.00  0.00    -0.206 OA
ATOM     16  N   UNL     1      21.907   9.011  24.497  1.00  0.00    -0.369 N 
ATOM     17  C   UNL     1      21.023   9.978  28.955  1.00  0.00     0.044 C 
ATOM     18  C   UNL     1      22.561  11.577  23.662  1.00  0.00     0.167 C 
ATOM     19  H   UNL     1      21.650   8.080  24.689  1.00  0.00     0.159 HD
ATOM     20  H   UNL     1      22.269   9.249  23.613  1.00  0.00     0.159 HD
ENDBRANCH   1   8
BRANCH   3  21
ATOM     21  N   UNL     1      16.684  10.863  25.462  1.00  0.00    -0.321 N 
ATOM     22  C   UNL     1      15.563  11.379  24.836  1.00  0.00     0.274 C 
ATOM     23  O   UNL     1      15.072  12.477  25.062  1.00  0.00    -0.267 OA
ATOM     24  H   UNL     1      16.895   9.923  25.260  1.00  0.00     0.170 HD
BRANCH  22  25
ATOM     25  C   UNL     1      14.967  10.511  23.791  1.00  0.00     0.128 A 
ATOM     26  N   UNL     1      15.636   9.391  23.497  1.00  0.00    -0.248 NA
ATOM     27  C   UNL     1      13.776  10.876  23.187  1.00  0.00     0.037 A 
ATOM     28  C   UNL     1      15.117   8.592  22.551  1.00  0.00     0.151 A 
ATOM     29  C   UNL     1      13.264  10.029  22.220  1.00  0.00     0.043 A 
ATOM     30  C   UNL     1      13.943   8.871  21.890  1.00  0.00     0.141 A 
ATOM     31  F   UNL     1      13.479   8.014  20.965  1.00  0.00    -0.205 F 
ENDBRANCH  22  25
ENDBRANCH   3  21
TORSDOF 3
ENDMDL
MODEL 11
REMARK VINA RESULT:    -7.526      2.622      3.983
REMARK INTER + INTRA:          -9.096
REMARK INTER:                  -9.698
REMARK INTRA:                   0.602
REMARK UNBOUND:                -0.250
REMARK SMILES CN1C(N)=N[C@](C)(c2cc(NC(=O)c3ccc(F)cn3)ccc2F)CS1(=O)=O
REMARK SMILES IDX 8 1 9 2 10 3 21 4 22 5 23 6 24 7 6 8 25 9 5 10 26 11 3 12
REMARK SMILES IDX 27 13 2 14 28 15 4 16 7 17 1 18 11 21 12 22 13 23 14 25
REMARK SMILES IDX 20 26 15 27 19 28 16 29 17 30 18 31
REMARK H PARENT 4 19 4 20 11 24
ROOT
ATOM      1  C   UNL     1      25.907  14.000  22.841  1.00  0.00     0.018 A 
ATOM      2  C   UNL     1      24.859  13.935  23.758  1.00  0.00     0.035 A 
ATOM      3  C   UNL     1      25.073  13.850  25.115  1.00  0.00     0.042 A 
ATOM      4  C   UNL     1      26.365  13.803  25.622  1.00  0.00     0.029 A 
ATOM      5  C   UNL     1      27.418  13.869  24.727  1.00  0.00     0.042 A 
ATOM      6  C   UNL     1      27.188  13.987  23.370  1.00  0.00     0.129 A 
ATOM      7  F   UNL     1      28.239  14.080  22.515  1.00  0.00    -0.207 F 
ENDROOT
BRANCH   1   8
ATOM      8  C   UNL     1      25.639  14.097  21.347  1.00  0.00     0.105 C 
ATOM      9  C   UNL     1      24.217  13.793  20.931  1.00  0.00     0.195 C 
ATOM     10  N   UNL     1      26.574  13.287  20.568  1.00  0.00    -0.240 NA
ATOM     11  S   UNL     1      23.801  12.108  21.303  1.00  0.00     0.239 S 
ATOM     12  C   UNL     1      26.401  12.011  20.408  1.00  0.00     0.205 C 
ATOM     13  O   UNL     1      22.783  11.711  20.346  1.00  0.00    -0.206 OA
ATOM     14  N   UNL     1      25.259  11.310  20.856  1.00  0.00    -0.243 N 
ATOM     15  O   UNL     1      23.708  11.887  22.713  1.00  0.00    -0.206 OA
ATOM     16  N   UNL     1      27.314  11.226  19.756  1.00  0.00    -0.369 N 
ATOM     17  C   UNL     1      25.948  15.522  20.881  1.00  0.00     0.044 C 
ATOM     18  C   UNL     1      25.134   9.841  20.777  1.00  0.00     0.167 C 
ATOM     19  H   UNL     1      28.144  11.624  19.406  1.00  0.00     0.159 HD
ATOM     20  H   UNL     1      27.141  10.264  19.638  1.00  0.00     0.159 HD
ENDBRANCH   1   8
BRANCH   3  21
ATOM     21  N   UNL     1      23.933  13.789  25.927  1.00  0.00    -0.321 N 
ATOM     22  C   UNL     1      23.211  12.672  26.309  1.00  0.00     0.274 C 
ATOM     23  O   UNL     1      23.387  11.540  25.880  1.00  0.00    -0.267 OA
ATOM     24  H   UNL     1      23.604  14.651  26.271  1.00  0.00     0.170 HD
BRANCH  22  25
ATOM     25  C   UNL     1      22.178  12.910  27.346  1.00  0.00     0.128 A 
ATOM     26  N   UNL     1      20.966  12.400  27.104  1.00  0.00    -0.248 NA
ATOM     27  C   UNL     1      22.499  13.617  28.492  1.00  0.00     0.037 A 
ATOM     28  C   UNL     1      20.013  12.605  28.028  1.00  0.00     0.151 A 
ATOM     29  C   UNL     1      21.498  13.807  29.428  1.00  0.00     0.043 A 
ATOM     30  C   UNL     1      20.234  13.301  29.195  1.00  0.00     0.141 A 
ATOM     31  F   UNL     1      19.232  13.452  30.079  1.00  0.00    -0.205 F 
ENDBRANCH  22  25
ENDBRANCH   3  21
TORSDOF 3
ENDMDL
MODEL 12
REMARK VINA RESULT:    -7.478      3.580      6.631
REMARK INTER + INTRA:          -9.040
REMARK INTER:                  -9.616
REMARK INTRA:                   0.576
REMARK UNBOUND:                -0.250
REMARK SMILES CN1C(N)=N[C@](C)(c2cc(NC(=O)c3ccc(F)cn3)ccc2F)CS1(=O)=O
REMARK SMILES IDX 8 1 9 2 10 3 21 4 22 5 23 6 24 7 6 8 25 9 5 10 26 11 3 12
REMARK SMILES IDX 27 13 2 14 28 15 4 16 7 17 1 18 11 21 12 22 13 23 14 25
REMARK SMILES IDX 20 26 15 27 19 28 16 29 17 30 18 31
REMARK H PARENT 4 19 4 20 11 24
ROOT
ATOM      1  C   UNL     1      26.076  12.716  21.357  1.00  0.00     0.018 A 
ATOM      2  C   UNL     1      26.590  13.519  22.374  1.00  0.00     0.035 A 
ATOM      3  C   UNL     1      27.870  13.366  22.858  1.00  0.00     0.042 A 
ATOM      4  C   UNL     1      28.699  12.372  22.352  1.00  0.00     0.029 A 
ATOM      5  C   UNL     1      28.206  11.568  21.340  1.00  0.00     0.042 A 
ATOM      6  C   UNL     1      26.931  11.754  20.843  1.00  0.00     0.129 A 
ATOM      7  F   UNL     1      26.483  10.970  19.829  1.00  0.00    -0.207 F 
ENDROOT
BRANCH   1   8
ATOM      8  C   UNL     1      24.659  12.912  20.842  1.00  0.00     0.105 C 
ATOM      9  C   UNL     1      23.760  13.734  21.738  1.00  0.00     0.195 C 
ATOM     10  N   UNL     1      24.014  11.642  20.514  1.00  0.00    -0.240 NA
ATOM     11  S   UNL     1      23.510  12.919  23.295  1.00  0.00     0.239 S 
ATOM     12  C   UNL     1      23.466  10.900  21.426  1.00  0.00     0.205 C 
ATOM     13  O   UNL     1      22.217  13.357  23.789  1.00  0.00    -0.206 OA
ATOM     14  N   UNL     1      23.332  11.287  22.778  1.00  0.00    -0.243 N 
ATOM     15  O   UNL     1      24.706  12.901  24.079  1.00  0.00    -0.206 OA
ATOM     16  N   UNL     1      22.937   9.668  21.146  1.00  0.00    -0.369 N 
ATOM     17  C   UNL     1      24.719  13.626  19.489  1.00  0.00     0.044 C 
ATOM     18  C   UNL     1      22.819  10.383  23.827  1.00  0.00     0.167 C 
ATOM     19  H   UNL     1      22.981   9.311  20.230  1.00  0.00     0.159 HD
ATOM     20  H   UNL     1      22.512   9.140  21.860  1.00  0.00     0.159 HD
ENDBRANCH   1   8
BRANCH   3  21
ATOM     21  N   UNL     1      28.262  14.237  23.883  1.00  0.00    -0.321 N 
ATOM     22  C   UNL     1      29.141  15.302  23.813  1.00  0.00     0.274 C 
ATOM     23  O   UNL     1      29.833  15.582  22.842  1.00  0.00    -0.267 OA
ATOM     24  H   UNL     1      27.860  14.068  24.766  1.00  0.00     0.170 HD
BRANCH  22  25
ATOM     25  C   UNL     1      29.189  16.164  25.019  1.00  0.00     0.128 A 
ATOM     26  N   UNL     1      29.478  17.454  24.815  1.00  0.00    -0.248 NA
ATOM     27  C   UNL     1      28.931  15.623  26.266  1.00  0.00     0.037 A 
ATOM     28  C   UNL     1      29.531  18.254  25.892  1.00  0.00     0.151 A 
ATOM     29  C   UNL     1      28.987  16.473  27.356  1.00  0.00     0.043 A 
ATOM     30  C   UNL     1      29.296  17.807  27.173  1.00  0.00     0.141 A 
ATOM     31  F   UNL     1      29.353  18.672  28.200  1.00  0.00    -0.205 F 
ENDBRANCH  22  25
ENDBRANCH   3  21
TORSDOF 3
ENDMDL
MODEL 13
REMARK VINA RESULT:    -7.468      2.464      3.511
REMARK INTER + INTRA:          -9.027
REMARK INTER:                  -9.330
REMARK INTRA:                   0.303
REMARK UNBOUND:                -0.250
REMARK SMILES CN1C(N)=N[C@](C)(c2cc(NC(=O)c3ccc(F)cn3)ccc2F)CS1(=O)=O
REMARK SMILES IDX 8 1 9 2 10 3 21 4 22 5 23 6 24 7 6 8 25 9 5 10 26 11 3 12
REMARK SMILES IDX 27 13 2 14 28 15 4 16 7 17 1 18 11 21 12 22 13 23 14 25
REMARK SMILES IDX 20 26 15 27 19 28 16 29 17 30 18 31
REMARK H PARENT 4 19 4 20 11 24
ROOT
ATOM      1  C   UNL     1      23.950  13.626  21.840  1.00  0.00     0.018 A 
ATOM      2  C   UNL     1      23.183  13.124  22.889  1.00  0.00     0.035 A 
ATOM      3  C   UNL     1      23.317  13.577  24.182  1.00  0.00     0.042 A 
ATOM      4  C   UNL     1      24.255  14.554  24.491  1.00  0.00     0.029 A 
ATOM      5  C   UNL     1      25.023  15.067  23.461  1.00  0.00     0.042 A 
ATOM      6  C   UNL     1      24.856  14.625  22.163  1.00  0.00     0.129 A 
ATOM      7  F   UNL     1      25.602  15.165  21.166  1.00  0.00    -0.207 F 
ENDROOT
BRANCH   1   8
ATOM      8  C   UNL     1      23.777  13.106  20.421  1.00  0.00     0.105 C 
ATOM      9  C   UNL     1      23.314  11.670  20.317  1.00  0.00     0.195 C 
ATOM     10  N   UNL     1      24.978  13.307  19.612  1.00  0.00    -0.240 NA
ATOM     11  S   UNL     1      24.528  10.570  21.000  1.00  0.00     0.239 S 
ATOM     12  C   UNL     1      25.985  12.491  19.674  1.00  0.00     0.205 C 
ATOM     13  O   UNL     1      24.372   9.301  20.311  1.00  0.00    -0.206 OA
ATOM     14  N   UNL     1      25.979  11.290  20.418  1.00  0.00    -0.243 N 
ATOM     15  O   UNL     1      24.624  10.706  22.420  1.00  0.00    -0.206 OA
ATOM     16  N   UNL     1      27.150  12.715  18.989  1.00  0.00    -0.369 N 
ATOM     17  C   UNL     1      22.733  13.967  19.704  1.00  0.00     0.044 C 
ATOM     18  C   UNL     1      27.173  10.437  20.578  1.00  0.00     0.167 C 
ATOM     19  H   UNL     1      27.250  13.526  18.441  1.00  0.00     0.159 HD
ATOM     20  H   UNL     1      27.886  12.064  19.045  1.00  0.00     0.159 HD
ENDBRANCH   1   8
BRANCH   3  21
ATOM     21  N   UNL     1      22.486  12.987  25.144  1.00  0.00    -0.321 N 
ATOM     22  C   UNL     1      22.706  11.831  25.872  1.00  0.00     0.274 C 
ATOM     23  O   UNL     1      23.631  11.050  25.692  1.00  0.00    -0.267 OA
ATOM     24  H   UNL     1      21.639  13.455  25.324  1.00  0.00     0.170 HD
BRANCH  22  25
ATOM     25  C   UNL     1      21.737  11.579  26.966  1.00  0.00     0.128 A 
ATOM     26  N   UNL     1      20.649  10.872  26.644  1.00  0.00    -0.248 NA
ATOM     27  C   UNL     1      21.992  12.060  28.239  1.00  0.00     0.037 A 
ATOM     28  C   UNL     1      19.755  10.634  27.618  1.00  0.00     0.151 A 
ATOM     29  C   UNL     1      21.056  11.794  29.222  1.00  0.00     0.043 A 
ATOM     30  C   UNL     1      19.917  11.075  28.912  1.00  0.00     0.141 A 
ATOM     31  F   UNL     1      18.985  10.785  29.835  1.00  0.00    -0.205 F 
ENDBRANCH  22  25
ENDBRANCH   3  21
TORSDOF 3
ENDMDL
MODEL 14
REMARK VINA RESULT:    -7.302      2.835      3.890
REMARK INTER + INTRA:          -8.832
REMARK INTER:                  -9.268
REMARK INTRA:                   0.436
REMARK UNBOUND:                -0.250
REMARK SMILES CN1C(N)=N[C@](C)(c2cc(NC(=O)c3ccc(F)cn3)ccc2F)CS1(=O)=O
REMARK SMILES IDX 8 1 9 2 10 3 21 4 22 5 23 6 24 7 6 8 25 9 5 10 26 11 3 12
REMARK SMILES IDX 27 13 2 14 28 15 4 16 7 17 1 18 11 21 12 22 13 23 14 25
REMARK SMILES IDX 20 26 15 27 19 28 16 29 17 30 18 31
REMARK H PARENT 4 19 4 20 11 24
ROOT
ATOM      1  C   UNL     1      26.939  14.170  23.230  1.00  0.00     0.018 A 
ATOM      2  C   UNL     1      25.617  13.768  23.413  1.00  0.00     0.035 A 
ATOM      3  C   UNL     1      25.042  13.671  24.660  1.00  0.00     0.042 A 
ATOM      4  C   UNL     1      25.784  13.954  25.800  1.00  0.00     0.029 A 
ATOM      5  C   UNL     1      27.098  14.357  25.637  1.00  0.00     0.042 A 
ATOM      6  C   UNL     1      27.651  14.482  24.378  1.00  0.00     0.129 A 
ATOM      7  F   UNL     1      28.933  14.908  24.245  1.00  0.00    -0.207 F 
ENDROOT
BRANCH   1   8
ATOM      8  C   UNL     1      27.544  14.271  21.839  1.00  0.00     0.105 C 
ATOM      9  C   UNL     1      26.802  13.513  20.760  1.00  0.00     0.195 C 
ATOM     10  N   UNL     1      28.959  13.903  21.827  1.00  0.00    -0.240 NA
ATOM     11  S   UNL     1      26.834  11.768  21.084  1.00  0.00     0.239 S 
ATOM     12  C   UNL     1      29.340  12.663  21.786  1.00  0.00     0.205 C 
ATOM     13  O   UNL     1      26.733  11.106  19.796  1.00  0.00    -0.206 OA
ATOM     14  N   UNL     1      28.455  11.573  21.632  1.00  0.00    -0.243 N 
ATOM     15  O   UNL     1      26.044  11.429  22.227  1.00  0.00    -0.206 OA
ATOM     16  N   UNL     1      30.658  12.301  21.865  1.00  0.00    -0.369 N 
ATOM     17  C   UNL     1      27.570  15.743  21.416  1.00  0.00     0.044 C 
ATOM     18  C   UNL     1      28.890  10.165  21.712  1.00  0.00     0.167 C 
ATOM     19  H   UNL     1      31.353  12.991  21.973  1.00  0.00     0.159 HD
ATOM     20  H   UNL     1      30.912  11.351  21.812  1.00  0.00     0.159 HD
ENDBRANCH   1   8
BRANCH   3  21
ATOM     21  N   UNL     1      23.706  13.253  24.704  1.00  0.00    -0.321 N 
ATOM     22  C   UNL     1      23.209  12.002  25.027  1.00  0.00     0.274 C 
ATOM     23  O   UNL     1      23.888  11.000  25.206  1.00  0.00    -0.267 OA
ATOM     24  H   UNL     1      23.035  13.936  24.477  1.00  0.00     0.170 HD
BRANCH  22  25
ATOM     25  C   UNL     1      21.737  11.929  25.191  1.00  0.00     0.128 A 
ATOM     26  N   UNL     1      21.070  13.083  25.086  1.00  0.00    -0.248 NA
ATOM     27  C   UNL     1      21.128  10.709  25.428  1.00  0.00     0.037 A 
ATOM     28  C   UNL     1      19.736  13.042  25.235  1.00  0.00     0.151 A 
ATOM     29  C   UNL     1      19.752  10.698  25.571  1.00  0.00     0.043 A 
ATOM     30  C   UNL     1      19.041  11.879  25.479  1.00  0.00     0.141 A 
ATOM     31  F   UNL     1      17.704  11.917  25.602  1.00  0.00    -0.205 F 
ENDBRANCH  22  25
ENDBRANCH   3  21
TORSDOF 3
ENDMDL
MODEL 15
REMARK VINA RESULT:    -7.164      2.872      3.963
REMARK INTER + INTRA:          -8.670
REMARK INTER:                  -8.988
REMARK INTRA:                   0.318
REMARK UNBOUND:                -0.250
REMARK SMILES CN1C(N)=N[C@](C)(c2cc(NC(=O)c3ccc(F)cn3)ccc2F)CS1(=O)=O
REMARK SMILES IDX 8 1 9 2 10 3 21 4 22 5 23 6 24 7 6 8 25 9 5 10 26 11 3 12
REMARK SMILES IDX 27 13 2 14 28 15 4 16 7 17 1 18 11 21 12 22 13 23 14 25
REMARK SMILES IDX 20 26 15 27 19 28 16 29 17 30 18 31
REMARK H PARENT 4 19 4 20 11 24
ROOT
ATOM      1  C   UNL     1      27.439  14.302  22.680  1.00  0.00     0.018 A 
ATOM      2  C   UNL     1      26.303  13.782  23.297  1.00  0.00     0.035 A 
ATOM      3  C   UNL     1      25.036  13.979  22.795  1.00  0.00     0.042 A 
ATOM      4  C   UNL     1      24.845  14.737  21.647  1.00  0.00     0.029 A 
ATOM      5  C   UNL     1      25.962  15.259  21.019  1.00  0.00     0.042 A 
ATOM      6  C   UNL     1      27.229  15.026  21.516  1.00  0.00     0.129 A 
ATOM      7  F   UNL     1      28.311  15.525  20.865  1.00  0.00    -0.207 F 
ENDROOT
BRANCH   1   8
ATOM      8  C   UNL     1      28.825  14.064  23.258  1.00  0.00     0.105 C 
ATOM      9  C   UNL     1      28.868  13.853  24.755  1.00  0.00     0.195 C 
ATOM     10  N   UNL     1      29.769  15.112  22.871  1.00  0.00    -0.240 NA
ATOM     11  S   UNL     1      28.325  15.311  25.609  1.00  0.00     0.239 S 
ATOM     12  C   UNL     1      29.820  16.247  23.497  1.00  0.00     0.205 C 
ATOM     13  O   UNL     1      28.985  15.304  26.902  1.00  0.00    -0.206 OA
ATOM     14  N   UNL     1      29.074  16.537  24.661  1.00  0.00    -0.243 N 
ATOM     15  O   UNL     1      26.926  15.542  25.422  1.00  0.00    -0.206 OA
ATOM     16  N   UNL     1      30.636  17.269  23.091  1.00  0.00    -0.369 N 
ATOM     17  C   UNL     1      29.422  12.810  22.611  1.00  0.00     0.044 C 
ATOM     18  C   UNL     1      29.049  17.873  25.289  1.00  0.00     0.167 C 
ATOM     19  H   UNL     1      31.196  17.162  22.289  1.00  0.00     0.159 HD
ATOM     20  H   UNL     1      30.662  18.111  23.601  1.00  0.00     0.159 HD
ENDBRANCH   1   8
BRANCH   3  21
ATOM     21  N   UNL     1      23.980  13.404  23.513  1.00  0.00    -0.321 N 
ATOM     22  C   UNL     1      23.363  12.184  23.300  1.00  0.00     0.274 C 
ATOM     23  O   UNL     1      23.567  11.449  22.343  1.00  0.00    -0.267 OA
ATOM     24  H   UNL     1      23.632  13.936  24.265  1.00  0.00     0.170 HD
BRANCH  22  25
ATOM     25  C   UNL     1      22.416  11.760  24.360  1.00  0.00     0.128 A 
ATOM     26  N   UNL     1      22.453  10.469  24.707  1.00  0.00    -0.248 NA
ATOM     27  C   UNL     1      21.565  12.687  24.937  1.00  0.00     0.037 A 
ATOM     28  C   UNL     1      21.600  10.061  25.661  1.00  0.00     0.151 A 
ATOM     29  C   UNL     1      20.703  12.238  25.921  1.00  0.00     0.043 A 
ATOM     30  C   UNL     1      20.713  10.906  26.289  1.00  0.00     0.141 A 
ATOM     31  F   UNL     1      19.901  10.426  27.247  1.00  0.00    -0.205 F 
ENDBRANCH  22  25
ENDBRANCH   3  21
TORSDOF 3
ENDMDL
MODEL 16
REMARK VINA RESULT:    -7.034      4.574      9.106
REMARK INTER + INTRA:          -8.517
REMARK INTER:                  -9.053
REMARK INTRA:                   0.536
REMARK UNBOUND:                -0.250
REMARK SMILES CN1C(N)=N[C@](C)(c2cc(NC(=O)c3ccc(F)cn3)ccc2F)CS1(=O)=O
REMARK SMILES IDX 8 1 9 2 10 3 21 4 22 5 23 6 24 7 6 8 25 9 5 10 26 11 3 12
REMARK SMILES IDX 27 13 2 14 28 15 4 16 7 17 1 18 11 21 12 22 13 23 14 25
REMARK SMILES IDX 20 26 15 27 19 28 16 29 17 30 18 31
REMARK H PARENT 4 19 4 20 11 24
ROOT
ATOM      1  C   UNL     1      18.716  12.029  26.221  1.00  0.00     0.018 A 
ATOM      2  C   UNL     1      19.669  12.412  25.279  1.00  0.00     0.035 A 
ATOM      3  C   UNL     1      20.967  12.713  25.625  1.00  0.00     0.042 A 
ATOM      4  C   UNL     1      21.370  12.664  26.954  1.00  0.00     0.029 A 
ATOM      5  C   UNL     1      20.437  12.281  27.902  1.00  0.00     0.042 A 
ATOM      6  C   UNL     1      19.147  11.952  27.536  1.00  0.00     0.129 A 
ATOM      7  F   UNL     1      18.260  11.551  28.482  1.00  0.00    -0.207 F 
ENDROOT
BRANCH   1   8
ATOM      8  C   UNL     1      17.290  11.700  25.806  1.00  0.00     0.105 C 
ATOM      9  C   UNL     1      16.669  12.668  24.824  1.00  0.00     0.195 C 
ATOM     10  N   UNL     1      16.410  11.522  26.960  1.00  0.00    -0.240 NA
ATOM     11  S   UNL     1      16.512  14.282  25.548  1.00  0.00     0.239 S 
ATOM     12  C   UNL     1      15.883  12.533  27.578  1.00  0.00     0.205 C 
ATOM     13  O   UNL     1      15.388  14.923  24.890  1.00  0.00    -0.206 OA
ATOM     14  N   UNL     1      16.004  13.871  27.141  1.00  0.00    -0.243 N 
ATOM     15  O   UNL     1      17.787  14.898  25.744  1.00  0.00    -0.206 OA
ATOM     16  N   UNL     1      15.130  12.385  28.711  1.00  0.00    -0.369 N 
ATOM     17  C   UNL     1      17.273  10.319  25.145  1.00  0.00     0.044 C 
ATOM     18  C   UNL     1      15.505  15.021  27.921  1.00  0.00     0.167 C 
ATOM     19  H   UNL     1      14.987  11.489  29.094  1.00  0.00     0.159 HD
ATOM     20  H   UNL     1      14.730  13.174  29.144  1.00  0.00     0.159 HD
ENDBRANCH   1   8
BRANCH   3  21
ATOM     21  N   UNL     1      21.824  13.087  24.582  1.00  0.00    -0.321 N 
ATOM     22  C   UNL     1      22.909  12.395  24.074  1.00  0.00     0.274 C 
ATOM     23  O   UNL     1      23.381  11.373  24.556  1.00  0.00    -0.267 OA
ATOM     24  H   UNL     1      21.630  13.954  24.157  1.00  0.00     0.170 HD
BRANCH  22  25
ATOM     25  C   UNL     1      23.490  12.953  22.829  1.00  0.00     0.128 A 
ATOM     26  N   UNL     1      24.213  14.070  22.961  1.00  0.00    -0.248 NA
ATOM     27  C   UNL     1      23.277  12.314  21.620  1.00  0.00     0.037 A 
ATOM     28  C   UNL     1      24.746  14.597  21.846  1.00  0.00     0.151 A 
ATOM     29  C   UNL     1      23.844  12.877  20.491  1.00  0.00     0.043 A 
ATOM     30  C   UNL     1      24.586  14.038  20.599  1.00  0.00     0.141 A 
ATOM     31  F   UNL     1      25.163  14.616  19.532  1.00  0.00    -0.205 F 
ENDBRANCH  22  25
ENDBRANCH   3  21
TORSDOF 3
ENDMDL
MODEL 17
REMARK VINA RESULT:    -7.029      4.667      8.769
REMARK INTER + INTRA:          -8.512
REMARK INTER:                  -8.131
REMARK INTRA:                  -0.380
REMARK UNBOUND:                -0.250
REMARK SMILES CN1C(N)=N[C@](C)(c2cc(NC(=O)c3ccc(F)cn3)ccc2F)CS1(=O)=O
REMARK SMILES IDX 8 1 9 2 10 3 21 4 22 5 23 6 24 7 6 8 25 9 5 10 26 11 3 12
REMARK SMILES IDX 27 13 2 14 28 15 4 16 7 17 1 18 11 21 12 22 13 23 14 25
REMARK SMILES IDX 20 26 15 27 19 28 16 29 17 30 18 31
REMARK H PARENT 4 19 4 20 11 24
ROOT
ATOM      1  C   UNL     1      26.970  14.498  20.596  1.00  0.00     0.018 A 
ATOM      2  C   UNL     1      28.172  15.102  20.961  1.00  0.00     0.035 A 
ATOM      3  C   UNL     1      28.489  16.392  20.599  1.00  0.00     0.042 A 
ATOM      4  C   UNL     1      27.612  17.140  19.824  1.00  0.00     0.029 A 
ATOM      5  C   UNL     1      26.412  16.558  19.454  1.00  0.00     0.042 A 
ATOM      6  C   UNL     1      26.094  15.274  19.852  1.00  0.00     0.129 A 
ATOM      7  F   UNL     1      24.898  14.737  19.501  1.00  0.00    -0.207 F 
ENDROOT
BRANCH   1   8
ATOM      8  C   UNL     1      26.648  13.072  21.014  1.00  0.00     0.105 C 
ATOM      9  C   UNL     1      25.343  12.902  21.759  1.00  0.00     0.195 C 
ATOM     10  N   UNL     1      27.741  12.462  21.770  1.00  0.00    -0.240 NA
ATOM     11  S   UNL     1      25.386  13.772  23.306  1.00  0.00     0.239 S 
ATOM     12  C   UNL     1      27.900  12.685  23.038  1.00  0.00     0.205 C 
ATOM     13  O   UNL     1      24.482  13.072  24.200  1.00  0.00    -0.206 OA
ATOM     14  N   UNL     1      26.990  13.424  23.827  1.00  0.00    -0.243 N 
ATOM     15  O   UNL     1      25.389  15.189  23.114  1.00  0.00    -0.206 OA
ATOM     16  N   UNL     1      28.968  12.192  23.739  1.00  0.00    -0.369 N 
ATOM     17  C   UNL     1      26.567  12.196  19.761  1.00  0.00     0.044 C 
ATOM     18  C   UNL     1      27.246  13.773  25.238  1.00  0.00     0.167 C 
ATOM     19  H   UNL     1      29.658  11.663  23.276  1.00  0.00     0.159 HD
ATOM     20  H   UNL     1      29.046  12.366  24.705  1.00  0.00     0.159 HD
ENDBRANCH   1   8
BRANCH   3  21
ATOM     21  N   UNL     1      29.730  16.878  21.029  1.00  0.00    -0.321 N 
ATOM     22  C   UNL     1      30.140  17.160  22.320  1.00  0.00     0.274 C 
ATOM     23  O   UNL     1      29.416  17.148  23.307  1.00  0.00    -0.267 OA
ATOM     24  H   UNL     1      30.396  17.039  20.322  1.00  0.00     0.170 HD
BRANCH  22  25
ATOM     25  C   UNL     1      31.584  17.460  22.475  1.00  0.00     0.128 A 
ATOM     26  N   UNL     1      32.290  17.577  21.346  1.00  0.00    -0.248 NA
ATOM     27  C   UNL     1      32.127  17.612  23.739  1.00  0.00     0.037 A 
ATOM     28  C   UNL     1      33.601  17.845  21.461  1.00  0.00     0.151 A 
ATOM     29  C   UNL     1      33.479  17.893  23.825  1.00  0.00     0.043 A 
ATOM     30  C   UNL     1      34.232  18.008  22.673  1.00  0.00     0.141 A 
ATOM     31  F   UNL     1      35.546  18.288  22.707  1.00  0.00    -0.205 F 
ENDBRANCH  22  25
ENDBRANCH   3  21
TORSDOF 3
ENDMDL
MODEL 18
REMARK VINA RESULT:    -7.026      3.636      8.181
REMARK INTER + INTRA:          -8.508
REMARK INTER:                  -8.516
REMARK INTRA:                   0.008
REMARK UNBOUND:                -0.250
REMARK SMILES CN1C(N)=N[C@](C)(c2cc(NC(=O)c3ccc(F)cn3)ccc2F)CS1(=O)=O
REMARK SMILES IDX 8 1 9 2 10 3 21 4 22 5 23 6 24 7 6 8 25 9 5 10 26 11 3 12
REMARK SMILES IDX 27 13 2 14 28 15 4 16 7 17 1 18 11 21 12 22 13 23 14 25
REMARK SMILES IDX 20 26 15 27 19 28 16 29 17 30 18 31
REMARK H PARENT 4 19 4 20 11 24
ROOT
ATOM      1  C   UNL     1      25.022  13.405  23.346  1.00  0.00     0.018 A 
ATOM      2  C   UNL     1      25.933  14.186  22.636  1.00  0.00     0.035 A 
ATOM      3  C   UNL     1      27.143  14.571  23.167  1.00  0.00     0.042 A 
ATOM      4  C   UNL     1      27.492  14.205  24.460  1.00  0.00     0.029 A 
ATOM      5  C   UNL     1      26.602  13.427  25.179  1.00  0.00     0.042 A 
ATOM      6  C   UNL     1      25.405  13.021  24.622  1.00  0.00     0.129 A 
ATOM      7  F   UNL     1      24.562  12.234  25.338  1.00  0.00    -0.207 F 
ENDROOT
BRANCH   1   8
ATOM      8  C   UNL     1      23.694  12.992  22.731  1.00  0.00     0.105 C 
ATOM      9  C   UNL     1      23.528  11.507  22.502  1.00  0.00     0.195 C 
ATOM     10  N   UNL     1      23.409  13.726  21.499  1.00  0.00    -0.240 NA
ATOM     11  S   UNL     1      24.715  10.918  21.321  1.00  0.00     0.239 S 
ATOM     12  C   UNL     1      23.923  13.373  20.361  1.00  0.00     0.205 C 
ATOM     13  O   UNL     1      24.119   9.761  20.677  1.00  0.00    -0.206 OA
ATOM     14  N   UNL     1      24.695  12.204  20.177  1.00  0.00    -0.243 N 
ATOM     15  O   UNL     1      26.043  10.949  21.848  1.00  0.00    -0.206 OA
ATOM     16  N   UNL     1      23.735  14.101  19.217  1.00  0.00    -0.369 N 
ATOM     17  C   UNL     1      22.560  13.432  23.662  1.00  0.00     0.044 C 
ATOM     18  C   UNL     1      25.376  11.882  18.907  1.00  0.00     0.167 C 
ATOM     19  H   UNL     1      23.210  14.933  19.244  1.00  0.00     0.159 HD
ATOM     20  H   UNL     1      24.126  13.793  18.367  1.00  0.00     0.159 HD
ENDBRANCH   1   8
BRANCH   3  21
ATOM     21  N   UNL     1      27.965  15.357  22.349  1.00  0.00    -0.321 N 
ATOM     22  C   UNL     1      29.342  15.315  22.224  1.00  0.00     0.274 C 
ATOM     23  O   UNL     1      30.093  14.650  22.926  1.00  0.00    -0.267 OA
ATOM     24  H   UNL     1      27.503  16.025  21.791  1.00  0.00     0.170 HD
BRANCH  22  25
ATOM     25  C   UNL     1      29.903  16.129  21.119  1.00  0.00     0.128 A 
ATOM     26  N   UNL     1      31.236  16.143  21.010  1.00  0.00    -0.248 NA
ATOM     27  C   UNL     1      29.056  16.813  20.265  1.00  0.00     0.037 A 
ATOM     28  C   UNL     1      31.768  16.877  20.019  1.00  0.00     0.151 A 
ATOM     29  C   UNL     1      29.633  17.555  19.250  1.00  0.00     0.043 A 
ATOM     30  C   UNL     1      31.008  17.595  19.124  1.00  0.00     0.141 A 
ATOM     31  F   UNL     1      31.613  18.295  18.148  1.00  0.00    -0.205 F 
ENDBRANCH  22  25
ENDBRANCH   3  21
TORSDOF 3
ENDMDL
MODEL 19
REMARK VINA RESULT:    -6.978      5.449      9.242
REMARK INTER + INTRA:          -8.451
REMARK INTER:                  -8.096
REMARK INTRA:                  -0.355
REMARK UNBOUND:                -0.250
REMARK SMILES CN1C(N)=N[C@](C)(c2cc(NC(=O)c3ccc(F)cn3)ccc2F)CS1(=O)=O
REMARK SMILES IDX 8 1 9 2 10 3 21 4 22 5 23 6 24 7 6 8 25 9 5 10 26 11 3 12
REMARK SMILES IDX 27 13 2 14 28 15 4 16 7 17 1 18 11 21 12 22 13 23 14 25
REMARK SMILES IDX 20 26 15 27 19 28 16 29 17 30 18 31
REMARK H PARENT 4 19 4 20 11 24
ROOT
ATOM      1  C   UNL     1      27.869  14.352  22.932  1.00  0.00     0.018 A 
ATOM      2  C   UNL     1      28.100  15.002  21.720  1.00  0.00     0.035 A 
ATOM      3  C   UNL     1      27.081  15.532  20.963  1.00  0.00     0.042 A 
ATOM      4  C   UNL     1      25.761  15.415  21.379  1.00  0.00     0.029 A 
ATOM      5  C   UNL     1      25.513  14.776  22.581  1.00  0.00     0.042 A 
ATOM      6  C   UNL     1      26.548  14.277  23.346  1.00  0.00     0.129 A 
ATOM      7  F   UNL     1      26.280  13.680  24.536  1.00  0.00    -0.207 F 
ENDROOT
BRANCH   1   8
ATOM      8  C   UNL     1      29.018  13.779  23.748  1.00  0.00     0.105 C 
ATOM      9  C   UNL     1      29.005  14.143  25.216  1.00  0.00     0.195 C 
ATOM     10  N   UNL     1      30.319  14.099  23.163  1.00  0.00    -0.240 NA
ATOM     11  S   UNL     1      29.197  15.894  25.429  1.00  0.00     0.239 S 
ATOM     12  C   UNL     1      30.892  15.245  23.361  1.00  0.00     0.205 C 
ATOM     13  O   UNL     1      29.821  16.087  26.726  1.00  0.00    -0.206 OA
ATOM     14  N   UNL     1      30.389  16.235  24.235  1.00  0.00    -0.243 N 
ATOM     15  O   UNL     1      28.046  16.611  24.978  1.00  0.00    -0.206 OA
ATOM     16  N   UNL     1      32.067  15.591  22.748  1.00  0.00    -0.369 N 
ATOM     17  C   UNL     1      28.970  12.251  23.664  1.00  0.00     0.044 C 
ATOM     18  C   UNL     1      30.984  17.581  24.354  1.00  0.00     0.167 C 
ATOM     19  H   UNL     1      32.496  14.966  22.120  1.00  0.00     0.159 HD
ATOM     20  H   UNL     1      32.483  16.463  22.936  1.00  0.00     0.159 HD
ENDBRANCH   1   8
BRANCH   3  21
ATOM     21  N   UNL     1      27.449  16.157  19.764  1.00  0.00    -0.321 N 
ATOM     22  C   UNL     1      28.123  17.353  19.594  1.00  0.00     0.274 C 
ATOM     23  O   UNL     1      28.400  18.140  20.490  1.00  0.00    -0.267 OA
ATOM     24  H   UNL     1      27.196  15.685  18.938  1.00  0.00     0.170 HD
BRANCH  22  25
ATOM     25  C   UNL     1      28.553  17.645  18.204  1.00  0.00     0.128 A 
ATOM     26  N   UNL     1      27.586  17.695  17.283  1.00  0.00    -0.248 NA
ATOM     27  C   UNL     1      29.892  17.858  17.926  1.00  0.00     0.037 A 
ATOM     28  C   UNL     1      27.952  17.953  16.016  1.00  0.00     0.151 A 
ATOM     29  C   UNL     1      30.237  18.128  16.613  1.00  0.00     0.043 A 
ATOM     30  C   UNL     1      29.258  18.173  15.640  1.00  0.00     0.141 A 
ATOM     31  F   UNL     1      29.543  18.441  14.354  1.00  0.00    -0.205 F 
ENDBRANCH  22  25
ENDBRANCH   3  21
TORSDOF 3
ENDMDL
MODEL 20
REMARK VINA RESULT:    -6.860      4.132      9.094
REMARK INTER + INTRA:          -8.313
REMARK INTER:                  -8.303
REMARK INTRA:                  -0.010
REMARK UNBOUND:                -0.250
REMARK SMILES CN1C(N)=N[C@](C)(c2cc(NC(=O)c3ccc(F)cn3)ccc2F)CS1(=O)=O
REMARK SMILES IDX 8 1 9 2 10 3 21 4 22 5 23 6 24 7 6 8 25 9 5 10 26 11 3 12
REMARK SMILES IDX 27 13 2 14 28 15 4 16 7 17 1 18 11 21 12 22 13 23 14 25
REMARK SMILES IDX 20 26 15 27 19 28 16 29 17 30 18 31
REMARK H PARENT 4 19 4 20 11 24
ROOT
ATOM      1  C   UNL     1      26.430  14.405  22.699  1.00  0.00     0.018 A 
ATOM      2  C   UNL     1      26.690  15.090  21.513  1.00  0.00     0.035 A 
ATOM      3  C   UNL     1      27.920  15.644  21.236  1.00  0.00     0.042 A 
ATOM      4  C   UNL     1      28.955  15.554  22.158  1.00  0.00     0.029 A 
ATOM      5  C   UNL     1      28.716  14.875  23.340  1.00  0.00     0.042 A 
ATOM      6  C   UNL     1      27.487  14.297  23.590  1.00  0.00     0.129 A 
ATOM      7  F   UNL     1      27.288  13.611  24.744  1.00  0.00    -0.207 F 
ENDROOT
BRANCH   1   8
ATOM      8  C   UNL     1      25.062  13.802  22.974  1.00  0.00     0.105 C 
ATOM      9  C   UNL     1      25.057  12.310  23.224  1.00  0.00     0.195 C 
ATOM     10  N   UNL     1      24.094  14.139  21.931  1.00  0.00    -0.240 NA
ATOM     11  S   UNL     1      25.598  11.431  21.779  1.00  0.00     0.239 S 
ATOM     12  C   UNL     1      24.040  13.483  20.813  1.00  0.00     0.205 C 
ATOM     13  O   UNL     1      24.969  10.124  21.830  1.00  0.00    -0.206 OA
ATOM     14  N   UNL     1      24.808  12.330  20.541  1.00  0.00    -0.243 N 
ATOM     15  O   UNL     1      26.989  11.644  21.522  1.00  0.00    -0.206 OA
ATOM     16  N   UNL     1      23.199  13.844  19.794  1.00  0.00    -0.369 N 
ATOM     17  C   UNL     1      24.470  14.467  24.220  1.00  0.00     0.044 C 
ATOM     18  C   UNL     1      24.827  11.668  19.222  1.00  0.00     0.167 C 
ATOM     19  H   UNL     1      22.622  14.636  19.890  1.00  0.00     0.159 HD
ATOM     20  H   UNL     1      23.172  13.311  18.967  1.00  0.00     0.159 HD
ENDBRANCH   1   8
BRANCH   3  21
ATOM     21  N   UNL     1      28.047  16.308  20.009  1.00  0.00    -0.321 N 
ATOM     22  C   UNL     1      28.950  17.296  19.659  1.00  0.00     0.274 C 
ATOM     23  O   UNL     1      29.719  17.853  20.432  1.00  0.00    -0.267 OA
ATOM     24  H   UNL     1      27.414  16.035  19.306  1.00  0.00     0.170 HD
BRANCH  22  25
ATOM     25  C   UNL     1      28.973  17.652  18.220  1.00  0.00     0.128 A 
ATOM     26  N   UNL     1      30.176  17.895  17.689  1.00  0.00    -0.248 NA
ATOM     27  C   UNL     1      27.791  17.706  17.502  1.00  0.00     0.037 A 
ATOM     28  C   UNL     1      30.223  18.223  16.387  1.00  0.00     0.151 A 
ATOM     29  C   UNL     1      27.872  18.041  16.161  1.00  0.00     0.043 A 
ATOM     30  C   UNL     1      29.102  18.308  15.592  1.00  0.00     0.141 A 
ATOM     31  F   UNL     1      29.231  18.628  14.293  1.00  0.00    -0.205 F 
ENDBRANCH  22  25
ENDBRANCH   3  21
TORSDOF 3
ENDMDL
