MODEL 1
REMARK VINA RESULT:    -7.536      0.000      0.000
REMARK INTER + INTRA:          -8.734
REMARK INTER:                  -8.417
REMARK INTRA:                  -0.317
REMARK UNBOUND:                -0.317
REMARK SMILES O=C(N[C@H]1CN2CCC1CC2)c1cc2cccc(Cl)c2s1
REMARK SMILES IDX 12 1 13 2 14 3 20 4 18 5 17 6 16 7 15 8 21 9 19 10 2 11 3 12
REMARK SMILES IDX 1 13 4 15 9 16 5 17 8 18 10 19 6 20 7 21 11 22
REMARK H PARENT 3 14
ROOT
ATOM      1  C   UNL     1     143.547 138.629  90.858  1.00  0.00     0.093 A 
ATOM      2  C   UNL     1     143.794 137.319  91.089  1.00  0.00     0.034 A 
ATOM      3  C   UNL     1     145.152 136.863  91.186  1.00  0.00    -0.005 A 
ATOM      4  C   UNL     1     146.117 137.916  91.018  1.00  0.00     0.054 A 
ATOM      5  C   UNL     1     147.459 137.627  91.087  1.00  0.00     0.058 A 
ATOM      6  C   UNL     1     147.877 136.313  91.320  1.00  0.00     0.022 A 
ATOM      7  C   UNL     1     146.931 135.287  91.482  1.00  0.00     0.002 A 
ATOM      8  C   UNL     1     145.568 135.578  91.413  1.00  0.00     0.010 A 
ATOM      9  S   UNL     1     145.103 139.401  90.746  1.00  0.00    -0.128 S 
ATOM     10  Cl  UNL     1     148.664 138.924  90.879  1.00  0.00    -0.083 Cl
ENDROOT
BRANCH   1  11
ATOM     11  C   UNL     1     142.161 139.270  90.727  1.00  0.00     0.261 C 
ATOM     12  N   UNL     1     141.014 138.473  90.338  1.00  0.00    -0.347 N 
ATOM     13  O   UNL     1     142.028 140.427  90.942  1.00  0.00    -0.268 OA
ATOM     14  H   UNL     1     141.116 137.512  90.155  1.00  0.00     0.164 HD
BRANCH  12  15
ATOM     15  C   UNL     1     139.686 139.118  90.218  1.00  0.00     0.099 C 
ATOM     16  C   UNL     1     138.645 138.210  90.691  1.00  0.00     0.015 C 
ATOM     17  C   UNL     1     139.397 139.455  88.742  1.00  0.00     0.109 C 
ATOM     18  C   UNL     1     137.369 138.847  90.519  1.00  0.00     0.021 C 
ATOM     19  C   UNL     1     138.674 137.006  89.864  1.00  0.00     0.021 C 
ATOM     20  N   UNL     1     138.227 138.831  88.300  1.00  0.00    -0.301 NA
ATOM     21  C   UNL     1     137.157 139.212  89.079  1.00  0.00     0.085 C 
ATOM     22  C   UNL     1     138.382 137.424  88.373  1.00  0.00     0.085 C 
ENDBRANCH  12  15
ENDBRANCH   1  11
TORSDOF 2
ENDMDL
MODEL 2
REMARK VINA RESULT:    -7.521      2.762      3.520
REMARK INTER + INTRA:          -8.717
REMARK INTER:                  -8.387
REMARK INTRA:                  -0.330
REMARK UNBOUND:                -0.317
REMARK SMILES O=C(N[C@H]1CN2CCC1CC2)c1cc2cccc(Cl)c2s1
REMARK SMILES IDX 12 1 13 2 14 3 20 4 18 5 17 6 16 7 15 8 21 9 19 10 2 11 3 12
REMARK SMILES IDX 1 13 4 15 9 16 5 17 8 18 10 19 6 20 7 21 11 22
REMARK H PARENT 3 14
ROOT
ATOM      1  C   UNL     1     143.768 139.886  90.104  1.00  0.00     0.093 A 
ATOM      2  C   UNL     1     144.327 140.148  88.900  1.00  0.00     0.034 A 
ATOM      3  C   UNL     1     145.604 140.800  88.841  1.00  0.00    -0.005 A 
ATOM      4  C   UNL     1     146.148 141.100  90.139  1.00  0.00     0.054 A 
ATOM      5  C   UNL     1     147.368 141.725  90.238  1.00  0.00     0.058 A 
ATOM      6  C   UNL     1     148.073 142.064  89.079  1.00  0.00     0.022 A 
ATOM      7  C   UNL     1     147.538 141.770  87.813  1.00  0.00     0.002 A 
ATOM      8  C   UNL     1     146.299 141.136  87.710  1.00  0.00     0.010 A 
ATOM      9  S   UNL     1     144.890 140.479  91.295  1.00  0.00    -0.128 S 
ATOM     10  Cl  UNL     1     148.051 142.102  91.841  1.00  0.00    -0.083 Cl
ENDROOT
BRANCH   1  11
ATOM     11  C   UNL     1     142.417 139.201  90.335  1.00  0.00     0.261 C 
ATOM     12  N   UNL     1     141.185 139.836  89.907  1.00  0.00    -0.347 N 
ATOM     13  O   UNL     1     142.379 138.145  90.869  1.00  0.00    -0.268 OA
ATOM     14  H   UNL     1     141.208 140.715  89.464  1.00  0.00     0.164 HD
BRANCH  12  15
ATOM     15  C   UNL     1     139.893 139.153  90.143  1.00  0.00     0.099 C 
ATOM     16  C   UNL     1     139.456 138.477  88.925  1.00  0.00     0.015 C 
ATOM     17  C   UNL     1     138.817 140.185  90.533  1.00  0.00     0.109 C 
ATOM     18  C   UNL     1     138.181 137.865  89.174  1.00  0.00     0.021 C 
ATOM     19  C   UNL     1     139.288 139.480  87.877  1.00  0.00     0.021 C 
ATOM     20  N   UNL     1     137.740 140.154  89.643  1.00  0.00    -0.301 NA
ATOM     21  C   UNL     1     137.181 138.895  89.609  1.00  0.00     0.085 C 
ATOM     22  C   UNL     1     138.185 140.504  88.345  1.00  0.00     0.085 C 
ENDBRANCH  12  15
ENDBRANCH   1  11
TORSDOF 2
ENDMDL
MODEL 3
REMARK VINA RESULT:    -7.433      3.208      3.913
REMARK INTER + INTRA:          -8.619
REMARK INTER:                  -8.306
REMARK INTRA:                  -0.312
REMARK UNBOUND:                -0.317
REMARK SMILES O=C(N[C@H]1CN2CCC1CC2)c1cc2cccc(Cl)c2s1
REMARK SMILES IDX 12 1 13 2 14 3 20 4 18 5 17 6 16 7 15 8 21 9 19 10 2 11 3 12
REMARK SMILES IDX 1 13 4 15 9 16 5 17 8 18 10 19 6 20 7 21 11 22
REMARK H PARENT 3 14
ROOT
ATOM      1  C   UNL     1     143.920 140.037  89.436  1.00  0.00     0.093 A 
ATOM      2  C   UNL     1     144.956 140.681  90.021  1.00  0.00     0.034 A 
ATOM      3  C   UNL     1     146.049 141.141  89.213  1.00  0.00    -0.005 A 
ATOM      4  C   UNL     1     145.885 140.844  87.815  1.00  0.00     0.054 A 
ATOM      5  C   UNL     1     146.855 141.227  86.919  1.00  0.00     0.058 A 
ATOM      6  C   UNL     1     147.992 141.903  87.371  1.00  0.00     0.022 A 
ATOM      7  C   UNL     1     148.148 142.191  88.738  1.00  0.00     0.002 A 
ATOM      8  C   UNL     1     147.166 141.803  89.649  1.00  0.00     0.010 A 
ATOM      9  S   UNL     1     144.289 139.978  87.736  1.00  0.00    -0.128 S 
ATOM     10  Cl  UNL     1     146.663 140.862  85.185  1.00  0.00    -0.083 Cl
ENDROOT
BRANCH   1  11
ATOM     11  C   UNL     1     142.685 139.484  90.156  1.00  0.00     0.261 C 
ATOM     12  N   UNL     1     141.351 139.816  89.694  1.00  0.00    -0.347 N 
ATOM     13  O   UNL     1     142.823 138.783  91.100  1.00  0.00    -0.268 OA
ATOM     14  H   UNL     1     141.228 140.401  88.911  1.00  0.00     0.164 HD
BRANCH  12  15
ATOM     15  C   UNL     1     140.176 139.269  90.408  1.00  0.00     0.099 C 
ATOM     16  C   UNL     1     139.602 138.160  89.652  1.00  0.00     0.015 C 
ATOM     17  C   UNL     1     139.096 140.360  90.556  1.00  0.00     0.109 C 
ATOM     18  C   UNL     1     138.440 137.684  90.348  1.00  0.00     0.021 C 
ATOM     19  C   UNL     1     139.184 138.662  88.346  1.00  0.00     0.021 C 
ATOM     20  N   UNL     1     137.895 139.967  89.961  1.00  0.00    -0.301 NA
ATOM     21  C   UNL     1     137.444 138.792  90.523  1.00  0.00     0.085 C 
ATOM     22  C   UNL     1     138.091 139.776  88.572  1.00  0.00     0.085 C 
ENDBRANCH  12  15
ENDBRANCH   1  11
TORSDOF 2
ENDMDL
MODEL 4
REMARK VINA RESULT:    -7.373      1.448      1.804
REMARK INTER + INTRA:          -8.552
REMARK INTER:                  -8.261
REMARK INTRA:                  -0.292
REMARK UNBOUND:                -0.317
REMARK SMILES O=C(N[C@H]1CN2CCC1CC2)c1cc2cccc(Cl)c2s1
REMARK SMILES IDX 12 1 13 2 14 3 20 4 18 5 17 6 16 7 15 8 21 9 19 10 2 11 3 12
REMARK SMILES IDX 1 13 4 15 9 16 5 17 8 18 10 19 6 20 7 21 11 22
REMARK H PARENT 3 14
ROOT
ATOM      1  C   UNL     1     143.541 138.312  90.645  1.00  0.00     0.093 A 
ATOM      2  C   UNL     1     144.675 138.730  90.038  1.00  0.00     0.034 A 
ATOM      3  C   UNL     1     145.874 137.951  90.166  1.00  0.00    -0.005 A 
ATOM      4  C   UNL     1     145.698 136.766  90.963  1.00  0.00     0.054 A 
ATOM      5  C   UNL     1     146.761 135.921  91.172  1.00  0.00     0.058 A 
ATOM      6  C   UNL     1     148.006 136.217  90.609  1.00  0.00     0.022 A 
ATOM      7  C   UNL     1     148.175 137.376  89.831  1.00  0.00     0.002 A 
ATOM      8  C   UNL     1     147.096 138.235  89.618  1.00  0.00     0.010 A 
ATOM      9  S   UNL     1     143.949 136.826  91.455  1.00  0.00    -0.128 S 
ATOM     10  Cl  UNL     1     146.554 134.451  92.159  1.00  0.00    -0.083 Cl
ENDROOT
BRANCH   1  11
ATOM     11  C   UNL     1     142.187 139.028  90.606  1.00  0.00     0.261 C 
ATOM     12  N   UNL     1     140.972 138.294  90.311  1.00  0.00    -0.347 N 
ATOM     13  O   UNL     1     142.134 140.193  90.816  1.00  0.00    -0.268 OA
ATOM     14  H   UNL     1     141.008 137.326  90.134  1.00  0.00     0.164 HD
BRANCH  12  15
ATOM     15  C   UNL     1     139.677 139.010  90.280  1.00  0.00     0.099 C 
ATOM     16  C   UNL     1     138.602 138.119  90.706  1.00  0.00     0.015 C 
ATOM     17  C   UNL     1     139.372 139.481  88.844  1.00  0.00     0.109 C 
ATOM     18  C   UNL     1     137.357 138.831  90.620  1.00  0.00     0.021 C 
ATOM     19  C   UNL     1     138.550 136.988  89.784  1.00  0.00     0.021 C 
ATOM     20  N   UNL     1     138.162 138.953  88.385  1.00  0.00    -0.301 NA
ATOM     21  C   UNL     1     137.130 139.322  89.220  1.00  0.00     0.085 C 
ATOM     22  C   UNL     1     138.245 137.540  88.340  1.00  0.00     0.085 C 
ENDBRANCH  12  15
ENDBRANCH   1  11
TORSDOF 2
ENDMDL
MODEL 5
REMARK VINA RESULT:    -6.537      3.328      7.821
REMARK INTER + INTRA:          -7.618
REMARK INTER:                  -7.405
REMARK INTRA:                  -0.213
REMARK UNBOUND:                -0.317
REMARK SMILES O=C(N[C@H]1CN2CCC1CC2)c1cc2cccc(Cl)c2s1
REMARK SMILES IDX 12 1 13 2 14 3 20 4 18 5 17 6 16 7 15 8 21 9 19 10 2 11 3 12
REMARK SMILES IDX 1 13 4 15 9 16 5 17 8 18 10 19 6 20 7 21 11 22
REMARK H PARENT 3 14
ROOT
ATOM      1  C   UNL     1     142.841 138.562  90.813  1.00  0.00     0.093 A 
ATOM      2  C   UNL     1     142.100 137.430  90.821  1.00  0.00     0.034 A 
ATOM      3  C   UNL     1     140.729 137.481  90.396  1.00  0.00    -0.005 A 
ATOM      4  C   UNL     1     140.308 138.797  89.996  1.00  0.00     0.054 A 
ATOM      5  C   UNL     1     139.019 138.997  89.564  1.00  0.00     0.058 A 
ATOM      6  C   UNL     1     138.126 137.922  89.516  1.00  0.00     0.022 A 
ATOM      7  C   UNL     1     138.541 136.638  89.909  1.00  0.00     0.002 A 
ATOM      8  C   UNL     1     139.850 136.433  90.348  1.00  0.00     0.010 A 
ATOM      9  S   UNL     1     141.790 139.823  90.233  1.00  0.00    -0.128 S 
ATOM     10  Cl  UNL     1     138.485 140.624  89.067  1.00  0.00    -0.083 Cl
ENDROOT
BRANCH   1  11
ATOM     11  C   UNL     1     144.310 138.674  91.235  1.00  0.00     0.261 C 
ATOM     12  N   UNL     1     145.091 137.484  91.511  1.00  0.00    -0.347 N 
ATOM     13  O   UNL     1     144.810 139.743  91.340  1.00  0.00    -0.268 OA
ATOM     14  H   UNL     1     144.683 136.592  91.429  1.00  0.00     0.164 HD
BRANCH  12  15
ATOM     15  C   UNL     1     146.508 137.621  91.918  1.00  0.00     0.099 C 
ATOM     16  C   UNL     1     147.346 137.851  90.745  1.00  0.00     0.015 C 
ATOM     17  C   UNL     1     146.985 136.325  92.604  1.00  0.00     0.109 C 
ATOM     18  C   UNL     1     148.715 137.933  91.169  1.00  0.00     0.021 C 
ATOM     19  C   UNL     1     147.208 136.704  89.850  1.00  0.00     0.021 C 
ATOM     20  N   UNL     1     148.080 135.772  91.934  1.00  0.00    -0.301 NA
ATOM     21  C   UNL     1     149.118 136.676  91.883  1.00  0.00     0.085 C 
ATOM     22  C   UNL     1     147.703 135.418  90.615  1.00  0.00     0.085 C 
ENDBRANCH  12  15
ENDBRANCH   1  11
TORSDOF 2
ENDMDL
MODEL 6
REMARK VINA RESULT:    -6.384      4.440      5.561
REMARK INTER + INTRA:          -7.448
REMARK INTER:                  -7.128
REMARK INTRA:                  -0.320
REMARK UNBOUND:                -0.317
REMARK SMILES O=C(N[C@H]1CN2CCC1CC2)c1cc2cccc(Cl)c2s1
REMARK SMILES IDX 12 1 13 2 14 3 20 4 18 5 17 6 16 7 15 8 21 9 19 10 2 11 3 12
REMARK SMILES IDX 1 13 4 15 9 16 5 17 8 18 10 19 6 20 7 21 11 22
REMARK H PARENT 3 14
ROOT
ATOM      1  C   UNL     1     144.450 139.661  92.874  1.00  0.00     0.093 A 
ATOM      2  C   UNL     1     143.708 138.578  92.546  1.00  0.00     0.034 A 
ATOM      3  C   UNL     1     144.365 137.343  92.224  1.00  0.00    -0.005 A 
ATOM      4  C   UNL     1     145.799 137.426  92.301  1.00  0.00     0.054 A 
ATOM      5  C   UNL     1     146.561 136.318  92.019  1.00  0.00     0.058 A 
ATOM      6  C   UNL     1     145.940 135.118  91.662  1.00  0.00     0.022 A 
ATOM      7  C   UNL     1     144.538 135.041  91.587  1.00  0.00     0.002 A 
ATOM      8  C   UNL     1     143.762 136.165  91.872  1.00  0.00     0.010 A 
ATOM      9  S   UNL     1     146.112 139.148  92.792  1.00  0.00    -0.128 S 
ATOM     10  Cl  UNL     1     148.340 136.410  92.110  1.00  0.00    -0.083 Cl
ENDROOT
BRANCH   1  11
ATOM     11  C   UNL     1     143.904 141.045  93.240  1.00  0.00     0.261 C 
ATOM     12  N   UNL     1     142.925 141.196  94.299  1.00  0.00    -0.347 N 
ATOM     13  O   UNL     1     144.282 141.999  92.649  1.00  0.00    -0.268 OA
ATOM     14  H   UNL     1     142.604 140.408  94.794  1.00  0.00     0.164 HD
BRANCH  12  15
ATOM     15  C   UNL     1     142.413 142.545  94.632  1.00  0.00     0.099 C 
ATOM     16  C   UNL     1     142.573 142.802  96.060  1.00  0.00     0.015 C 
ATOM     17  C   UNL     1     140.913 142.636  94.291  1.00  0.00     0.109 C 
ATOM     18  C   UNL     1     142.025 144.097  96.356  1.00  0.00     0.021 C 
ATOM     19  C   UNL     1     141.807 141.799  96.796  1.00  0.00     0.021 C 
ATOM     20  N   UNL     1     140.156 142.962  95.419  1.00  0.00    -0.301 NA
ATOM     21  C   UNL     1     140.582 144.160  95.952  1.00  0.00     0.085 C 
ATOM     22  C   UNL     1     140.290 141.943  96.393  1.00  0.00     0.085 C 
ENDBRANCH  12  15
ENDBRANCH   1  11
TORSDOF 2
ENDMDL
MODEL 7
REMARK VINA RESULT:    -6.354      3.307      7.954
REMARK INTER + INTRA:          -7.414
REMARK INTER:                  -7.114
REMARK INTRA:                  -0.300
REMARK UNBOUND:                -0.317
REMARK SMILES O=C(N[C@H]1CN2CCC1CC2)c1cc2cccc(Cl)c2s1
REMARK SMILES IDX 12 1 13 2 14 3 20 4 18 5 17 6 16 7 15 8 21 9 19 10 2 11 3 12
REMARK SMILES IDX 1 13 4 15 9 16 5 17 8 18 10 19 6 20 7 21 11 22
REMARK H PARENT 3 14
ROOT
ATOM      1  C   UNL     1     142.538 138.860  90.470  1.00  0.00     0.093 A 
ATOM      2  C   UNL     1     141.563 139.743  90.154  1.00  0.00     0.034 A 
ATOM      3  C   UNL     1     140.203 139.295  90.074  1.00  0.00    -0.005 A 
ATOM      4  C   UNL     1     140.049 137.893  90.358  1.00  0.00     0.054 A 
ATOM      5  C   UNL     1     138.800 137.323  90.320  1.00  0.00     0.058 A 
ATOM      6  C   UNL     1     137.686 138.107  90.006  1.00  0.00     0.022 A 
ATOM      7  C   UNL     1     137.839 139.476  89.727  1.00  0.00     0.002 A 
ATOM      8  C   UNL     1     139.107 140.057  89.765  1.00  0.00     0.010 A 
ATOM      9  S   UNL     1     141.743 137.328  90.700  1.00  0.00    -0.128 S 
ATOM     10  Cl  UNL     1     138.599 135.586  90.670  1.00  0.00    -0.083 Cl
ENDROOT
BRANCH   1  11
ATOM     11  C   UNL     1     144.032 139.179  90.594  1.00  0.00     0.261 C 
ATOM     12  N   UNL     1     144.983 138.139  90.934  1.00  0.00    -0.347 N 
ATOM     13  O   UNL     1     144.411 140.286  90.412  1.00  0.00    -0.268 OA
ATOM     14  H   UNL     1     144.675 137.217  91.089  1.00  0.00     0.164 HD
BRANCH  12  15
ATOM     15  C   UNL     1     146.421 138.474  91.047  1.00  0.00     0.099 C 
ATOM     16  C   UNL     1     147.103 138.179  89.790  1.00  0.00     0.015 C 
ATOM     17  C   UNL     1     147.072 137.629  92.159  1.00  0.00     0.109 C 
ATOM     18  C   UNL     1     148.500 138.472  89.949  1.00  0.00     0.021 C 
ATOM     19  C   UNL     1     146.960 136.751  89.515  1.00  0.00     0.021 C 
ATOM     20  N   UNL     1     148.127 136.861  91.659  1.00  0.00    -0.301 NA
ATOM     21  C   UNL     1     149.078 137.673  91.080  1.00  0.00     0.085 C 
ATOM     22  C   UNL     1     147.637 135.951  90.691  1.00  0.00     0.085 C 
ENDBRANCH  12  15
ENDBRANCH   1  11
TORSDOF 2
ENDMDL
MODEL 8
REMARK VINA RESULT:    -6.325      4.108      7.500
REMARK INTER + INTRA:          -7.382
REMARK INTER:                  -7.093
REMARK INTRA:                  -0.289
REMARK UNBOUND:                -0.317
REMARK SMILES O=C(N[C@H]1CN2CCC1CC2)c1cc2cccc(Cl)c2s1
REMARK SMILES IDX 12 1 13 2 14 3 20 4 18 5 17 6 16 7 15 8 21 9 19 10 2 11 3 12
REMARK SMILES IDX 1 13 4 15 9 16 5 17 8 18 10 19 6 20 7 21 11 22
REMARK H PARENT 3 14
ROOT
ATOM      1  C   UNL     1     142.415 139.301  90.432  1.00  0.00     0.093 A 
ATOM      2  C   UNL     1     142.338 137.956  90.556  1.00  0.00     0.034 A 
ATOM      3  C   UNL     1     141.055 137.314  90.512  1.00  0.00    -0.005 A 
ATOM      4  C   UNL     1     139.966 138.236  90.330  1.00  0.00     0.054 A 
ATOM      5  C   UNL     1     138.677 137.763  90.268  1.00  0.00     0.058 A 
ATOM      6  C   UNL     1     138.432 136.391  90.381  1.00  0.00     0.022 A 
ATOM      7  C   UNL     1     139.499 135.494  90.559  1.00  0.00     0.002 A 
ATOM      8  C   UNL     1     140.809 135.971  90.623  1.00  0.00     0.010 A 
ATOM      9  S   UNL     1     140.778 139.860  90.240  1.00  0.00    -0.128 S 
ATOM     10  Cl  UNL     1     137.319 138.897  90.044  1.00  0.00    -0.083 Cl
ENDROOT
BRANCH   1  11
ATOM     11  C   UNL     1     143.702 140.132  90.460  1.00  0.00     0.261 C 
ATOM     12  N   UNL     1     144.671 140.028  89.386  1.00  0.00    -0.347 N 
ATOM     13  O   UNL     1     143.907 140.863  91.369  1.00  0.00    -0.268 OA
ATOM     14  H   UNL     1     144.508 139.421  88.629  1.00  0.00     0.164 HD
BRANCH  12  15
ATOM     15  C   UNL     1     145.906 140.843  89.438  1.00  0.00     0.099 C 
ATOM     16  C   UNL     1     146.340 141.180  88.086  1.00  0.00     0.015 C 
ATOM     17  C   UNL     1     147.034 140.043  90.120  1.00  0.00     0.109 C 
ATOM     18  C   UNL     1     147.563 141.929  88.171  1.00  0.00     0.021 C 
ATOM     19  C   UNL     1     146.610 139.938  87.366  1.00  0.00     0.021 C 
ATOM     20  N   UNL     1     148.137 139.901  89.274  1.00  0.00    -0.301 NA
ATOM     21  C   UNL     1     148.612 141.138  88.894  1.00  0.00     0.085 C 
ATOM     22  C   UNL     1     147.761 139.170  88.120  1.00  0.00     0.085 C 
ENDBRANCH  12  15
ENDBRANCH   1  11
TORSDOF 2
ENDMDL
MODEL 9
REMARK VINA RESULT:    -6.313      4.659      7.744
REMARK INTER + INTRA:          -7.368
REMARK INTER:                  -7.052
REMARK INTRA:                  -0.316
REMARK UNBOUND:                -0.317
REMARK SMILES O=C(N[C@H]1CN2CCC1CC2)c1cc2cccc(Cl)c2s1
REMARK SMILES IDX 12 1 13 2 14 3 20 4 18 5 17 6 16 7 15 8 21 9 19 10 2 11 3 12
REMARK SMILES IDX 1 13 4 15 9 16 5 17 8 18 10 19 6 20 7 21 11 22
REMARK H PARENT 3 14
ROOT
ATOM      1  C   UNL     1     144.002 140.775  93.058  1.00  0.00     0.093 A 
ATOM      2  C   UNL     1     142.898 141.166  92.380  1.00  0.00     0.034 A 
ATOM      3  C   UNL     1     141.868 141.891  93.067  1.00  0.00    -0.005 A 
ATOM      4  C   UNL     1     142.164 142.119  94.456  1.00  0.00     0.054 A 
ATOM      5  C   UNL     1     141.267 142.803  95.241  1.00  0.00     0.058 A 
ATOM      6  C   UNL     1     140.073 143.273  94.685  1.00  0.00     0.022 A 
ATOM      7  C   UNL     1     139.787 143.047  93.328  1.00  0.00     0.002 A 
ATOM      8  C   UNL     1     140.696 142.353  92.529  1.00  0.00     0.010 A 
ATOM      9  S   UNL     1     143.788 141.337  94.692  1.00  0.00    -0.128 S 
ATOM     10  Cl  UNL     1     141.624 143.091  96.964  1.00  0.00    -0.083 Cl
ENDROOT
BRANCH   1  11
ATOM     11  C   UNL     1     145.185 139.996  92.472  1.00  0.00     0.261 C 
ATOM     12  N   UNL     1     145.003 138.648  91.968  1.00  0.00    -0.347 N 
ATOM     13  O   UNL     1     146.256 140.498  92.434  1.00  0.00    -0.268 OA
ATOM     14  H   UNL     1     144.116 138.223  91.998  1.00  0.00     0.164 HD
BRANCH  12  15
ATOM     15  C   UNL     1     146.162 137.918  91.407  1.00  0.00     0.099 C 
ATOM     16  C   UNL     1     145.769 137.215  90.190  1.00  0.00     0.015 C 
ATOM     17  C   UNL     1     146.668 136.875  92.424  1.00  0.00     0.109 C 
ATOM     18  C   UNL     1     146.902 136.481  89.699  1.00  0.00     0.021 C 
ATOM     19  C   UNL     1     144.716 136.262  90.529  1.00  0.00     0.021 C 
ATOM     20  N   UNL     1     146.633 135.586  91.886  1.00  0.00    -0.301 NA
ATOM     21  C   UNL     1     147.397 135.523  90.741  1.00  0.00     0.085 C 
ATOM     22  C   UNL     1     145.296 135.235  91.575  1.00  0.00     0.085 C 
ENDBRANCH  12  15
ENDBRANCH   1  11
TORSDOF 2
ENDMDL
MODEL 10
REMARK VINA RESULT:    -6.297      3.936      7.766
REMARK INTER + INTRA:          -7.350
REMARK INTER:                  -7.034
REMARK INTRA:                  -0.316
REMARK UNBOUND:                -0.317
REMARK SMILES O=C(N[C@H]1CN2CCC1CC2)c1cc2cccc(Cl)c2s1
REMARK SMILES IDX 12 1 13 2 14 3 20 4 18 5 17 6 16 7 15 8 21 9 19 10 2 11 3 12
REMARK SMILES IDX 1 13 4 15 9 16 5 17 8 18 10 19 6 20 7 21 11 22
REMARK H PARENT 3 14
ROOT
ATOM      1  C   UNL     1     142.699 138.751  90.543  1.00  0.00     0.093 A 
ATOM      2  C   UNL     1     141.682 139.596  90.256  1.00  0.00     0.034 A 
ATOM      3  C   UNL     1     140.343 139.087  90.176  1.00  0.00    -0.005 A 
ATOM      4  C   UNL     1     140.257 137.674  90.429  1.00  0.00     0.054 A 
ATOM      5  C   UNL     1     139.034 137.047  90.388  1.00  0.00     0.058 A 
ATOM      6  C   UNL     1     137.882 137.786  90.102  1.00  0.00     0.022 A 
ATOM      7  C   UNL     1     137.971 139.167  89.854  1.00  0.00     0.002 A 
ATOM      8  C   UNL     1     139.211 139.805  89.895  1.00  0.00     0.010 A 
ATOM      9  S   UNL     1     141.978 137.180  90.743  1.00  0.00    -0.128 S 
ATOM     10  Cl  UNL     1     138.916 135.296  90.699  1.00  0.00    -0.083 Cl
ENDROOT
BRANCH   1  11
ATOM     11  C   UNL     1     144.178 139.136  90.661  1.00  0.00     0.261 C 
ATOM     12  N   UNL     1     144.884 139.706  89.531  1.00  0.00    -0.347 N 
ATOM     13  O   UNL     1     144.748 138.963  91.685  1.00  0.00    -0.268 OA
ATOM     14  H   UNL     1     144.418 139.851  88.676  1.00  0.00     0.164 HD
BRANCH  12  15
ATOM     15  C   UNL     1     146.313 140.069  89.672  1.00  0.00     0.099 C 
ATOM     16  C   UNL     1     146.562 141.370  89.057  1.00  0.00     0.015 C 
ATOM     17  C   UNL     1     147.194 139.024  88.959  1.00  0.00     0.109 C 
ATOM     18  C   UNL     1     147.962 141.669  89.171  1.00  0.00     0.021 C 
ATOM     19  C   UNL     1     146.224 141.280  87.639  1.00  0.00     0.021 C 
ATOM     20  N   UNL     1     147.983 139.616  87.970  1.00  0.00    -0.301 NA
ATOM     21  C   UNL     1     148.782 140.596  88.518  1.00  0.00     0.085 C 
ATOM     22  C   UNL     1     147.151 140.191  86.978  1.00  0.00     0.085 C 
ENDBRANCH  12  15
ENDBRANCH   1  11
TORSDOF 2
ENDMDL
MODEL 11
REMARK VINA RESULT:    -6.208      4.999      7.774
REMARK INTER + INTRA:          -7.251
REMARK INTER:                  -6.954
REMARK INTRA:                  -0.296
REMARK UNBOUND:                -0.317
REMARK SMILES O=C(N[C@H]1CN2CCC1CC2)c1cc2cccc(Cl)c2s1
REMARK SMILES IDX 12 1 13 2 14 3 20 4 18 5 17 6 16 7 15 8 21 9 19 10 2 11 3 12
REMARK SMILES IDX 1 13 4 15 9 16 5 17 8 18 10 19 6 20 7 21 11 22
REMARK H PARENT 3 14
ROOT
ATOM      1  C   UNL     1     143.816 140.601  93.546  1.00  0.00     0.093 A 
ATOM      2  C   UNL     1     143.502 140.627  94.862  1.00  0.00     0.034 A 
ATOM      3  C   UNL     1     142.347 141.358  95.297  1.00  0.00    -0.005 A 
ATOM      4  C   UNL     1     141.639 141.996  94.220  1.00  0.00     0.054 A 
ATOM      5  C   UNL     1     140.510 142.732  94.488  1.00  0.00     0.058 A 
ATOM      6  C   UNL     1     140.056 142.855  95.804  1.00  0.00     0.022 A 
ATOM      7  C   UNL     1     140.750 142.231  96.855  1.00  0.00     0.002 A 
ATOM      8  C   UNL     1     141.897 141.484  96.585  1.00  0.00     0.010 A 
ATOM      9  S   UNL     1     142.599 141.550  92.742  1.00  0.00    -0.128 S 
ATOM     10  Cl  UNL     1     139.626 143.528  93.160  1.00  0.00    -0.083 Cl
ENDROOT
BRANCH   1  11
ATOM     11  C   UNL     1     145.012 139.871  92.924  1.00  0.00     0.261 C 
ATOM     12  N   UNL     1     144.819 138.645  92.174  1.00  0.00    -0.347 N 
ATOM     13  O   UNL     1     146.102 140.312  93.060  1.00  0.00    -0.268 OA
ATOM     14  H   UNL     1     143.916 138.271  92.058  1.00  0.00     0.164 HD
BRANCH  12  15
ATOM     15  C   UNL     1     145.991 137.960  91.584  1.00  0.00     0.099 C 
ATOM     16  C   UNL     1     145.613 137.311  90.332  1.00  0.00     0.015 C 
ATOM     17  C   UNL     1     146.509 136.877  92.551  1.00  0.00     0.109 C 
ATOM     18  C   UNL     1     146.759 136.619  89.811  1.00  0.00     0.021 C 
ATOM     19  C   UNL     1     144.573 136.327  90.621  1.00  0.00     0.021 C 
ATOM     20  N   UNL     1     146.496 135.615  91.951  1.00  0.00    -0.301 NA
ATOM     21  C   UNL     1     147.265 135.619  90.808  1.00  0.00     0.085 C 
ATOM     22  C   UNL     1     145.166 135.260  91.618  1.00  0.00     0.085 C 
ENDBRANCH  12  15
ENDBRANCH   1  11
TORSDOF 2
ENDMDL
MODEL 12
REMARK VINA RESULT:    -6.094      4.611      5.166
REMARK INTER + INTRA:          -7.124
REMARK INTER:                  -6.871
REMARK INTRA:                  -0.253
REMARK UNBOUND:                -0.317
REMARK SMILES O=C(N[C@H]1CN2CCC1CC2)c1cc2cccc(Cl)c2s1
REMARK SMILES IDX 12 1 13 2 14 3 20 4 18 5 17 6 16 7 15 8 21 9 19 10 2 11 3 12
REMARK SMILES IDX 1 13 4 15 9 16 5 17 8 18 10 19 6 20 7 21 11 22
REMARK H PARENT 3 14
ROOT
ATOM      1  C   UNL     1     142.587 140.442  86.105  1.00  0.00     0.093 A 
ATOM      2  C   UNL     1     143.697 140.082  86.789  1.00  0.00     0.034 A 
ATOM      3  C   UNL     1     144.981 140.182  86.154  1.00  0.00    -0.005 A 
ATOM      4  C   UNL     1     144.910 140.681  84.807  1.00  0.00     0.054 A 
ATOM      5  C   UNL     1     146.063 140.831  84.075  1.00  0.00     0.058 A 
ATOM      6  C   UNL     1     147.297 140.499  84.643  1.00  0.00     0.022 A 
ATOM      7  C   UNL     1     147.362 140.011  85.960  1.00  0.00     0.002 A 
ATOM      8  C   UNL     1     146.192 139.857  86.705  1.00  0.00     0.010 A 
ATOM      9  S   UNL     1     143.134 140.960  84.536  1.00  0.00    -0.128 S 
ATOM     10  Cl  UNL     1     145.987 141.448  82.404  1.00  0.00    -0.083 Cl
ENDROOT
BRANCH   1  11
ATOM     11  C   UNL     1     141.150 140.393  86.638  1.00  0.00     0.261 C 
ATOM     12  N   UNL     1     140.869 139.844  87.951  1.00  0.00    -0.347 N 
ATOM     13  O   UNL     1     140.263 140.803  85.970  1.00  0.00    -0.268 OA
ATOM     14  H   UNL     1     141.601 139.499  88.511  1.00  0.00     0.164 HD
BRANCH  12  15
ATOM     15  C   UNL     1     139.473 139.808  88.441  1.00  0.00     0.099 C 
ATOM     16  C   UNL     1     139.456 139.766  89.900  1.00  0.00     0.015 C 
ATOM     17  C   UNL     1     138.764 138.544  87.915  1.00  0.00     0.109 C 
ATOM     18  C   UNL     1     138.091 139.685  90.340  1.00  0.00     0.021 C 
ATOM     19  C   UNL     1     140.152 138.557  90.334  1.00  0.00     0.021 C 
ATOM     20  N   UNL     1     138.292 137.754  88.966  1.00  0.00    -0.301 NA
ATOM     21  C   UNL     1     137.424 138.475  89.756  1.00  0.00     0.085 C 
ATOM     22  C   UNL     1     139.382 137.310  89.755  1.00  0.00     0.085 C 
ENDBRANCH  12  15
ENDBRANCH   1  11
TORSDOF 2
ENDMDL
MODEL 13
REMARK VINA RESULT:    -6.076      1.519      1.947
REMARK INTER + INTRA:          -7.104
REMARK INTER:                  -6.807
REMARK INTRA:                  -0.297
REMARK UNBOUND:                -0.317
REMARK SMILES O=C(N[C@H]1CN2CCC1CC2)c1cc2cccc(Cl)c2s1
REMARK SMILES IDX 12 1 13 2 14 3 20 4 18 5 17 6 16 7 15 8 21 9 19 10 2 11 3 12
REMARK SMILES IDX 1 13 4 15 9 16 5 17 8 18 10 19 6 20 7 21 11 22
REMARK H PARENT 3 14
ROOT
ATOM      1  C   UNL     1     143.404 137.717  90.828  1.00  0.00     0.093 A 
ATOM      2  C   UNL     1     144.373 136.849  90.455  1.00  0.00     0.034 A 
ATOM      3  C   UNL     1     145.750 137.199  90.662  1.00  0.00    -0.005 A 
ATOM      4  C   UNL     1     145.923 138.490  91.271  1.00  0.00     0.054 A 
ATOM      5  C   UNL     1     147.189 138.957  91.530  1.00  0.00     0.058 A 
ATOM      6  C   UNL     1     148.300 138.175  91.201  1.00  0.00     0.022 A 
ATOM      7  C   UNL     1     148.127 136.914  90.605  1.00  0.00     0.002 A 
ATOM      8  C   UNL     1     146.843 136.438  90.341  1.00  0.00     0.010 A 
ATOM      9  S   UNL     1     144.224 139.097  91.500  1.00  0.00    -0.128 S 
ATOM     10  Cl  UNL     1     147.415 140.556  92.285  1.00  0.00    -0.083 Cl
ENDROOT
BRANCH   1  11
ATOM     11  C   UNL     1     141.895 137.495  90.674  1.00  0.00     0.261 C 
ATOM     12  N   UNL     1     141.017 138.600  90.342  1.00  0.00    -0.347 N 
ATOM     13  O   UNL     1     141.443 136.411  90.832  1.00  0.00    -0.268 OA
ATOM     14  H   UNL     1     141.384 139.504  90.212  1.00  0.00     0.164 HD
BRANCH  12  15
ATOM     15  C   UNL     1     139.563 138.358  90.200  1.00  0.00     0.099 C 
ATOM     16  C   UNL     1     139.237 138.081  88.804  1.00  0.00     0.015 C 
ATOM     17  C   UNL     1     138.777 139.608  90.640  1.00  0.00     0.109 C 
ATOM     18  C   UNL     1     137.816 137.897  88.694  1.00  0.00     0.021 C 
ATOM     19  C   UNL     1     139.614 139.244  88.005  1.00  0.00     0.021 C 
ATOM     20  N   UNL     1     137.971 140.089  89.605  1.00  0.00    -0.301 NA
ATOM     21  C   UNL     1     137.091 139.113  89.189  1.00  0.00     0.085 C 
ATOM     22  C   UNL     1     138.782 140.483  88.512  1.00  0.00     0.085 C 
ENDBRANCH  12  15
ENDBRANCH   1  11
TORSDOF 2
ENDMDL
MODEL 14
REMARK VINA RESULT:    -5.996      4.861      8.491
REMARK INTER + INTRA:          -7.015
REMARK INTER:                  -6.692
REMARK INTRA:                  -0.323
REMARK UNBOUND:                -0.317
REMARK SMILES O=C(N[C@H]1CN2CCC1CC2)c1cc2cccc(Cl)c2s1
REMARK SMILES IDX 12 1 13 2 14 3 20 4 18 5 17 6 16 7 15 8 21 9 19 10 2 11 3 12
REMARK SMILES IDX 1 13 4 15 9 16 5 17 8 18 10 19 6 20 7 21 11 22
REMARK H PARENT 3 14
ROOT
ATOM      1  C   UNL     1     139.616 141.414  90.420  1.00  0.00     0.093 A 
ATOM      2  C   UNL     1     139.529 142.316  91.425  1.00  0.00     0.034 A 
ATOM      3  C   UNL     1     138.704 143.479  91.261  1.00  0.00    -0.005 A 
ATOM      4  C   UNL     1     138.043 143.530  89.984  1.00  0.00     0.054 A 
ATOM      5  C   UNL     1     137.218 144.588  89.687  1.00  0.00     0.058 A 
ATOM      6  C   UNL     1     137.025 145.607  90.625  1.00  0.00     0.022 A 
ATOM      7  C   UNL     1     137.673 145.553  91.871  1.00  0.00     0.002 A 
ATOM      8  C   UNL     1     138.511 144.480  92.176  1.00  0.00     0.010 A 
ATOM      9  S   UNL     1     138.601 142.019  89.142  1.00  0.00    -0.128 S 
ATOM     10  Cl  UNL     1     136.396 144.663  88.107  1.00  0.00    -0.083 Cl
ENDROOT
BRANCH   1  11
ATOM     11  C   UNL     1     140.451 140.129  90.438  1.00  0.00     0.261 C 
ATOM     12  N   UNL     1     141.865 140.173  90.757  1.00  0.00    -0.347 N 
ATOM     13  O   UNL     1     139.936 139.093  90.186  1.00  0.00    -0.268 OA
ATOM     14  H   UNL     1     142.300 141.030  90.965  1.00  0.00     0.164 HD
BRANCH  12  15
ATOM     15  C   UNL     1     142.648 138.916  90.768  1.00  0.00     0.099 C 
ATOM     16  C   UNL     1     143.315 138.754  92.056  1.00  0.00     0.015 C 
ATOM     17  C   UNL     1     143.728 138.961  89.668  1.00  0.00     0.109 C 
ATOM     18  C   UNL     1     144.101 137.552  92.016  1.00  0.00     0.021 C 
ATOM     19  C   UNL     1     144.216 139.887  92.253  1.00  0.00     0.021 C 
ATOM     20  N   UNL     1     145.007 138.806  90.208  1.00  0.00    -0.301 NA
ATOM     21  C   UNL     1     145.096 137.614  90.895  1.00  0.00     0.085 C 
ATOM     22  C   UNL     1     145.283 139.877  91.093  1.00  0.00     0.085 C 
ENDBRANCH  12  15
ENDBRANCH   1  11
TORSDOF 2
ENDMDL
MODEL 15
REMARK VINA RESULT:    -5.990      3.612      8.072
REMARK INTER + INTRA:          -7.007
REMARK INTER:                  -6.700
REMARK INTRA:                  -0.307
REMARK UNBOUND:                -0.317
REMARK SMILES O=C(N[C@H]1CN2CCC1CC2)c1cc2cccc(Cl)c2s1
REMARK SMILES IDX 12 1 13 2 14 3 20 4 18 5 17 6 16 7 15 8 21 9 19 10 2 11 3 12
REMARK SMILES IDX 1 13 4 15 9 16 5 17 8 18 10 19 6 20 7 21 11 22
REMARK H PARENT 3 14
ROOT
ATOM      1  C   UNL     1     143.678 136.787  90.972  1.00  0.00     0.093 A 
ATOM      2  C   UNL     1     142.681 135.875  90.895  1.00  0.00     0.034 A 
ATOM      3  C   UNL     1     141.336 136.318  90.658  1.00  0.00    -0.005 A 
ATOM      4  C   UNL     1     141.224 137.746  90.525  1.00  0.00     0.054 A 
ATOM      5  C   UNL     1     139.994 138.314  90.294  1.00  0.00     0.058 A 
ATOM      6  C   UNL     1     138.861 137.502  90.190  1.00  0.00     0.022 A 
ATOM      7  C   UNL     1     138.974 136.107  90.322  1.00  0.00     0.002 A 
ATOM      8  C   UNL     1     140.222 135.528  90.556  1.00  0.00     0.010 A 
ATOM      9  S   UNL     1     142.930 138.340  90.733  1.00  0.00    -0.128 S 
ATOM     10  Cl  UNL     1     139.844 140.082  90.128  1.00  0.00    -0.083 Cl
ENDROOT
BRANCH   1  11
ATOM     11  C   UNL     1     145.158 136.477  91.220  1.00  0.00     0.261 C 
ATOM     12  N   UNL     1     146.194 137.272  90.590  1.00  0.00    -0.347 N 
ATOM     13  O   UNL     1     145.457 135.578  91.931  1.00  0.00    -0.268 OA
ATOM     14  H   UNL     1     145.954 138.019  89.996  1.00  0.00     0.164 HD
BRANCH  12  15
ATOM     15  C   UNL     1     147.616 136.951  90.847  1.00  0.00     0.099 C 
ATOM     16  C   UNL     1     148.326 138.147  91.293  1.00  0.00     0.015 C 
ATOM     17  C   UNL     1     148.285 136.451  89.551  1.00  0.00     0.109 C 
ATOM     18  C   UNL     1     149.709 137.812  91.489  1.00  0.00     0.021 C 
ATOM     19  C   UNL     1     148.240 139.153  90.238  1.00  0.00     0.021 C 
ATOM     20  N   UNL     1     149.374 137.253  89.201  1.00  0.00    -0.301 NA
ATOM     21  C   UNL     1     150.301 137.273  90.220  1.00  0.00     0.085 C 
ATOM     22  C   UNL     1     148.931 138.574  88.945  1.00  0.00     0.085 C 
ENDBRANCH  12  15
ENDBRANCH   1  11
TORSDOF 2
ENDMDL
MODEL 16
REMARK VINA RESULT:    -5.935      5.235      8.185
REMARK INTER + INTRA:          -6.946
REMARK INTER:                  -6.636
REMARK INTRA:                  -0.310
REMARK UNBOUND:                -0.317
REMARK SMILES O=C(N[C@H]1CN2CCC1CC2)c1cc2cccc(Cl)c2s1
REMARK SMILES IDX 12 1 13 2 14 3 20 4 18 5 17 6 16 7 15 8 21 9 19 10 2 11 3 12
REMARK SMILES IDX 1 13 4 15 9 16 5 17 8 18 10 19 6 20 7 21 11 22
REMARK H PARENT 3 14
ROOT
ATOM      1  C   UNL     1     146.947 138.362  90.685  1.00  0.00     0.093 A 
ATOM      2  C   UNL     1     147.317 137.150  91.160  1.00  0.00     0.034 A 
ATOM      3  C   UNL     1     146.315 136.152  91.407  1.00  0.00    -0.005 A 
ATOM      4  C   UNL     1     144.983 136.597  91.098  1.00  0.00     0.054 A 
ATOM      5  C   UNL     1     143.920 135.746  91.285  1.00  0.00     0.058 A 
ATOM      6  C   UNL     1     144.140 134.454  91.773  1.00  0.00     0.022 A 
ATOM      7  C   UNL     1     145.443 134.024  92.074  1.00  0.00     0.002 A 
ATOM      8  C   UNL     1     146.524 134.886  91.886  1.00  0.00     0.010 A 
ATOM      9  S   UNL     1     145.216 138.303  90.513  1.00  0.00    -0.128 S 
ATOM     10  Cl  UNL     1     142.264 136.288  90.907  1.00  0.00    -0.083 Cl
ENDROOT
BRANCH   1  11
ATOM     11  C   UNL     1     147.890 139.529  90.373  1.00  0.00     0.261 C 
ATOM     12  N   UNL     1     148.580 139.598  89.099  1.00  0.00    -0.347 N 
ATOM     13  O   UNL     1     148.058 140.378  91.180  1.00  0.00    -0.268 OA
ATOM     14  H   UNL     1     148.448 138.895  88.424  1.00  0.00     0.164 HD
BRANCH  12  15
ATOM     15  C   UNL     1     149.486 140.737  88.824  1.00  0.00     0.099 C 
ATOM     16  C   UNL     1     148.790 141.751  88.037  1.00  0.00     0.015 C 
ATOM     17  C   UNL     1     150.706 140.254  88.014  1.00  0.00     0.109 C 
ATOM     18  C   UNL     1     149.708 142.817  87.749  1.00  0.00     0.021 C 
ATOM     19  C   UNL     1     148.373 141.147  86.774  1.00  0.00     0.021 C 
ATOM     20  N   UNL     1     150.808 140.934  86.798  1.00  0.00    -0.301 NA
ATOM     21  C   UNL     1     150.906 142.291  87.015  1.00  0.00     0.085 C 
ATOM     22  C   UNL     1     149.664 140.669  86.006  1.00  0.00     0.085 C 
ENDBRANCH  12  15
ENDBRANCH   1  11
TORSDOF 2
ENDMDL
MODEL 17
REMARK VINA RESULT:    -5.909      7.153      9.716
REMARK INTER + INTRA:          -6.917
REMARK INTER:                  -6.612
REMARK INTRA:                  -0.305
REMARK UNBOUND:                -0.317
REMARK SMILES O=C(N[C@H]1CN2CCC1CC2)c1cc2cccc(Cl)c2s1
REMARK SMILES IDX 12 1 13 2 14 3 20 4 18 5 17 6 16 7 15 8 21 9 19 10 2 11 3 12
REMARK SMILES IDX 1 13 4 15 9 16 5 17 8 18 10 19 6 20 7 21 11 22
REMARK H PARENT 3 14
ROOT
ATOM      1  C   UNL     1     139.541 143.164  92.109  1.00  0.00     0.093 A 
ATOM      2  C   UNL     1     138.714 144.219  91.929  1.00  0.00     0.034 A 
ATOM      3  C   UNL     1     137.980 144.339  90.702  1.00  0.00    -0.005 A 
ATOM      4  C   UNL     1     138.234 143.264  89.781  1.00  0.00     0.054 A 
ATOM      5  C   UNL     1     137.599 143.246  88.562  1.00  0.00     0.058 A 
ATOM      6  C   UNL     1     136.710 144.272  88.225  1.00  0.00     0.022 A 
ATOM      7  C   UNL     1     136.465 145.321  89.127  1.00  0.00     0.002 A 
ATOM      8  C   UNL     1     137.109 145.342  90.365  1.00  0.00     0.010 A 
ATOM      9  S   UNL     1     139.429 142.211  90.657  1.00  0.00    -0.128 S 
ATOM     10  Cl  UNL     1     137.908 141.919  87.413  1.00  0.00    -0.083 Cl
ENDROOT
BRANCH   1  11
ATOM     11  C   UNL     1     140.391 142.894  93.356  1.00  0.00     0.261 C 
ATOM     12  N   UNL     1     139.945 143.336  94.663  1.00  0.00    -0.347 N 
ATOM     13  O   UNL     1     141.423 142.322  93.249  1.00  0.00    -0.268 OA
ATOM     14  H   UNL     1     139.090 143.814  94.760  1.00  0.00     0.164 HD
BRANCH  12  15
ATOM     15  C   UNL     1     140.786 143.062  95.850  1.00  0.00     0.099 C 
ATOM     16  C   UNL     1     140.373 141.810  96.478  1.00  0.00     0.015 C 
ATOM     17  C   UNL     1     140.622 144.195  96.883  1.00  0.00     0.109 C 
ATOM     18  C   UNL     1     141.176 141.599  97.650  1.00  0.00     0.021 C 
ATOM     19  C   UNL     1     138.978 141.942  96.893  1.00  0.00     0.021 C 
ATOM     20  N   UNL     1     140.163 143.702  98.107  1.00  0.00    -0.301 NA
ATOM     21  C   UNL     1     141.032 142.753  98.598  1.00  0.00     0.085 C 
ATOM     22  C   UNL     1     138.883 143.120  97.936  1.00  0.00     0.085 C 
ENDBRANCH  12  15
ENDBRANCH   1  11
TORSDOF 2
ENDMDL
MODEL 18
REMARK VINA RESULT:    -5.892      5.081      6.037
REMARK INTER + INTRA:          -6.898
REMARK INTER:                  -6.583
REMARK INTRA:                  -0.316
REMARK UNBOUND:                -0.317
REMARK SMILES O=C(N[C@H]1CN2CCC1CC2)c1cc2cccc(Cl)c2s1
REMARK SMILES IDX 12 1 13 2 14 3 20 4 18 5 17 6 16 7 15 8 21 9 19 10 2 11 3 12
REMARK SMILES IDX 1 13 4 15 9 16 5 17 8 18 10 19 6 20 7 21 11 22
REMARK H PARENT 3 14
ROOT
ATOM      1  C   UNL     1     144.024 140.603  93.222  1.00  0.00     0.093 A 
ATOM      2  C   UNL     1     143.880 139.265  93.366  1.00  0.00     0.034 A 
ATOM      3  C   UNL     1     144.256 138.395  92.288  1.00  0.00    -0.005 A 
ATOM      4  C   UNL     1     144.765 139.099  91.142  1.00  0.00     0.054 A 
ATOM      5  C   UNL     1     145.167 138.394  90.032  1.00  0.00     0.058 A 
ATOM      6  C   UNL     1     145.078 136.998  90.025  1.00  0.00     0.022 A 
ATOM      7  C   UNL     1     144.580 136.314  91.147  1.00  0.00     0.002 A 
ATOM      8  C   UNL     1     144.172 137.028  92.274  1.00  0.00     0.010 A 
ATOM      9  S   UNL     1     144.683 140.848  91.630  1.00  0.00    -0.128 S 
ATOM     10  Cl  UNL     1     145.798 139.256  88.605  1.00  0.00    -0.083 Cl
ENDROOT
BRANCH   1  11
ATOM     11  C   UNL     1     143.669 141.661  94.273  1.00  0.00     0.261 C 
ATOM     12  N   UNL     1     142.283 141.960  94.579  1.00  0.00    -0.347 N 
ATOM     13  O   UNL     1     144.534 142.240  94.837  1.00  0.00    -0.268 OA
ATOM     14  H   UNL     1     141.558 141.485  94.113  1.00  0.00     0.164 HD
BRANCH  12  15
ATOM     15  C   UNL     1     141.968 142.987  95.598  1.00  0.00     0.099 C 
ATOM     16  C   UNL     1     141.771 142.355  96.899  1.00  0.00     0.015 C 
ATOM     17  C   UNL     1     140.667 143.722  95.218  1.00  0.00     0.109 C 
ATOM     18  C   UNL     1     141.422 143.371  97.853  1.00  0.00     0.021 C 
ATOM     19  C   UNL     1     140.653 141.421  96.792  1.00  0.00     0.021 C 
ATOM     20  N   UNL     1     139.704 143.600  96.223  1.00  0.00    -0.301 NA
ATOM     21  C   UNL     1     140.187 144.100  97.412  1.00  0.00     0.085 C 
ATOM     22  C   UNL     1     139.364 142.235  96.393  1.00  0.00     0.085 C 
ENDBRANCH  12  15
ENDBRANCH   1  11
TORSDOF 2
ENDMDL
MODEL 19
REMARK VINA RESULT:    -5.787      4.985      6.255
REMARK INTER + INTRA:          -6.781
REMARK INTER:                  -6.440
REMARK INTRA:                  -0.341
REMARK UNBOUND:                -0.317
REMARK SMILES O=C(N[C@H]1CN2CCC1CC2)c1cc2cccc(Cl)c2s1
REMARK SMILES IDX 12 1 13 2 14 3 20 4 18 5 17 6 16 7 15 8 21 9 19 10 2 11 3 12
REMARK SMILES IDX 1 13 4 15 9 16 5 17 8 18 10 19 6 20 7 21 11 22
REMARK H PARENT 3 14
ROOT
ATOM      1  C   UNL     1     144.134 139.604  93.349  1.00  0.00     0.093 A 
ATOM      2  C   UNL     1     143.879 140.182  92.152  1.00  0.00     0.034 A 
ATOM      3  C   UNL     1     144.439 139.613  90.960  1.00  0.00    -0.005 A 
ATOM      4  C   UNL     1     145.235 138.441  91.210  1.00  0.00     0.054 A 
ATOM      5  C   UNL     1     145.834 137.787  90.160  1.00  0.00     0.058 A 
ATOM      6  C   UNL     1     145.666 138.264  88.856  1.00  0.00     0.022 A 
ATOM      7  C   UNL     1     144.889 139.410  88.616  1.00  0.00     0.002 A 
ATOM      8  C   UNL     1     144.280 140.076  89.681  1.00  0.00     0.010 A 
ATOM      9  S   UNL     1     145.149 138.231  93.014  1.00  0.00    -0.128 S 
ATOM     10  Cl  UNL     1     146.823 136.335  90.459  1.00  0.00    -0.083 Cl
ENDROOT
BRANCH   1  11
ATOM     11  C   UNL     1     143.615 140.089  94.707  1.00  0.00     0.261 C 
ATOM     12  N   UNL     1     142.974 141.384  94.833  1.00  0.00    -0.347 N 
ATOM     13  O   UNL     1     143.742 139.401  95.663  1.00  0.00    -0.268 OA
ATOM     14  H   UNL     1     142.867 141.963  94.044  1.00  0.00     0.164 HD
BRANCH  12  15
ATOM     15  C   UNL     1     142.482 141.828  96.157  1.00  0.00     0.099 C 
ATOM     16  C   UNL     1     141.036 141.651  96.238  1.00  0.00     0.015 C 
ATOM     17  C   UNL     1     142.796 143.324  96.359  1.00  0.00     0.109 C 
ATOM     18  C   UNL     1     140.587 142.133  97.514  1.00  0.00     0.021 C 
ATOM     19  C   UNL     1     140.414 142.462  95.194  1.00  0.00     0.021 C 
ATOM     20  N   UNL     1     141.630 144.059  96.588  1.00  0.00    -0.301 NA
ATOM     21  C   UNL     1     140.966 143.573  97.693  1.00  0.00     0.085 C 
ATOM     22  C   UNL     1     140.783 143.972  95.456  1.00  0.00     0.085 C 
ENDBRANCH  12  15
ENDBRANCH   1  11
TORSDOF 2
ENDMDL
MODEL 20
REMARK VINA RESULT:    -5.636      4.955      9.664
REMARK INTER + INTRA:          -6.612
REMARK INTER:                  -6.306
REMARK INTRA:                  -0.307
REMARK UNBOUND:                -0.317
REMARK SMILES O=C(N[C@H]1CN2CCC1CC2)c1cc2cccc(Cl)c2s1
REMARK SMILES IDX 12 1 13 2 14 3 20 4 18 5 17 6 16 7 15 8 21 9 19 10 2 11 3 12
REMARK SMILES IDX 1 13 4 15 9 16 5 17 8 18 10 19 6 20 7 21 11 22
REMARK H PARENT 3 14
ROOT
ATOM      1  C   UNL     1     147.315 136.575  91.670  1.00  0.00     0.093 A 
ATOM      2  C   UNL     1     146.398 135.592  91.521  1.00  0.00     0.034 A 
ATOM      3  C   UNL     1     145.018 135.937  91.332  1.00  0.00    -0.005 A 
ATOM      4  C   UNL     1     144.784 137.356  91.323  1.00  0.00     0.054 A 
ATOM      5  C   UNL     1     143.507 137.835  91.151  1.00  0.00     0.058 A 
ATOM      6  C   UNL     1     142.445 136.942  90.984  1.00  0.00     0.022 A 
ATOM      7  C   UNL     1     142.677 135.556  90.994  1.00  0.00     0.002 A 
ATOM      8  C   UNL     1     143.972 135.067  91.169  1.00  0.00     0.010 A 
ATOM      9  S   UNL     1     146.436 138.074  91.571  1.00  0.00    -0.128 S 
ATOM     10  Cl  UNL     1     143.206 139.593  91.139  1.00  0.00    -0.083 Cl
ENDROOT
BRANCH   1  11
ATOM     11  C   UNL     1     148.820 136.372  91.881  1.00  0.00     0.261 C 
ATOM     12  N   UNL     1     149.780 137.239  91.225  1.00  0.00    -0.347 N 
ATOM     13  O   UNL     1     149.200 135.498  92.584  1.00  0.00    -0.268 OA
ATOM     14  H   UNL     1     149.472 137.965  90.637  1.00  0.00     0.164 HD
BRANCH  12  15
ATOM     15  C   UNL     1     151.228 137.021  91.446  1.00  0.00     0.099 C 
ATOM     16  C   UNL     1     151.859 138.262  91.885  1.00  0.00     0.015 C 
ATOM     17  C   UNL     1     151.899 136.578  90.131  1.00  0.00     0.109 C 
ATOM     18  C   UNL     1     153.267 138.027  92.045  1.00  0.00     0.021 C 
ATOM     19  C   UNL     1     151.675 139.265  90.839  1.00  0.00     0.021 C 
ATOM     20  N   UNL     1     152.919 137.458  89.762  1.00  0.00    -0.301 NA
ATOM     21  C   UNL     1     153.866 137.540  90.759  1.00  0.00     0.085 C 
ATOM     22  C   UNL     1     152.375 138.745  89.527  1.00  0.00     0.085 C 
ENDBRANCH  12  15
ENDBRANCH   1  11
TORSDOF 2
ENDMDL
