MODEL 1
REMARK VINA RESULT:   -12.831      0.000      0.000
REMARK INTER + INTRA:         -18.402
REMARK INTER:                 -18.082
REMARK INTRA:                  -0.320
REMARK UNBOUND:                -0.320
REMARK SMILES Cc1ccc(NC(=O)c2ccc(CN3CCN(C)CC3)cc2)cc1Nc1nc(-c2cccnc2)cs1
REMARK SMILES IDX 6 1 7 2 8 3 5 5 2 6 3 7 24 8 4 9 23 10 1 11 25 12 26 14
REMARK SMILES IDX 27 15 36 16 28 17 35 18 29 19 30 20 34 21 31 22 33 23 32 24
REMARK SMILES IDX 9 25 10 26 22 27 11 28 21 29 12 30 13 31 14 32 15 33 20 34
REMARK SMILES IDX 16 35 19 36 17 37 18 38
REMARK H PARENT 6 4 25 13
ROOT
ATOM      1  N   UNL     1      24.274  26.090  40.081  1.00  0.00    -0.322 N 
ATOM      2  C   UNL     1      24.893  25.282  39.144  1.00  0.00     0.255 C 
ATOM      3  O   UNL     1      25.642  24.338  39.364  1.00  0.00    -0.269 OA
ATOM      4  H   UNL     1      23.572  26.730  39.735  1.00  0.00     0.170 HD
ENDROOT
BRANCH   1   5
ATOM      5  C   UNL     1      24.419  26.038  41.483  1.00  0.00     0.043 A 
ATOM      6  C   UNL     1      24.542  26.003  44.305  1.00  0.00    -0.027 A 
ATOM      7  C   UNL     1      23.504  26.671  43.643  1.00  0.00     0.008 A 
ATOM      8  C   UNL     1      25.545  25.374  43.544  1.00  0.00     0.045 A 
ATOM      9  C   UNL     1      23.443  26.686  42.248  1.00  0.00     0.026 A 
ATOM     10  C   UNL     1      25.470  25.396  42.139  1.00  0.00     0.052 A 
ATOM     11  C   UNL     1      24.575  26.005  45.809  1.00  0.00     0.046 C 
BRANCH   8  12
ATOM     12  N   UNL     1      26.635  24.728  44.175  1.00  0.00    -0.331 N 
ATOM     13  H   UNL     1      26.843  23.844  43.719  1.00  0.00     0.169 HD
BRANCH  12  14
ATOM     14  C   UNL     1      27.786  25.369  44.519  1.00  0.00     0.187 A 
ATOM     15  N   UNL     1      28.676  24.797  45.302  1.00  0.00    -0.220 NA
ATOM     16  S   UNL     1      28.216  26.966  44.020  1.00  0.00    -0.105 S 
ATOM     17  C   UNL     1      29.757  25.634  45.542  1.00  0.00     0.085 A 
ATOM     18  C   UNL     1      29.675  26.858  44.910  1.00  0.00     0.097 A 
BRANCH  17  19
ATOM     19  C   UNL     1      30.856  25.202  46.401  1.00  0.00     0.019 A 
ATOM     20  C   UNL     1      31.975  25.994  46.677  1.00  0.00     0.013 A 
ATOM     21  C   UNL     1      30.816  23.945  47.002  1.00  0.00     0.121 A 
ATOM     22  C   UNL     1      32.981  25.513  47.518  1.00  0.00     0.021 A 
ATOM     23  N   UNL     1      31.779  23.450  47.823  1.00  0.00    -0.264 NA
ATOM     24  C   UNL     1      32.839  24.248  48.061  1.00  0.00     0.111 A 
ENDBRANCH  17  19
ENDBRANCH  12  14
ENDBRANCH   8  12
ENDBRANCH   1   5
BRANCH   2  25
ATOM     25  C   UNL     1      24.542  25.595  37.730  1.00  0.00     0.040 A 
ATOM     26  C   UNL     1      23.388  26.342  37.477  1.00  0.00     0.014 A 
ATOM     27  C   UNL     1      25.330  25.148  36.662  1.00  0.00     0.014 A 
ATOM     28  C   UNL     1      23.041  26.670  36.166  1.00  0.00     0.006 A 
ATOM     29  C   UNL     1      24.977  25.474  35.349  1.00  0.00     0.006 A 
ATOM     30  C   UNL     1      23.837  26.249  35.089  1.00  0.00    -0.034 A 
BRANCH  30  31
ATOM     31  C   UNL     1      23.447  26.592  33.662  1.00  0.00     0.120 C 
BRANCH  31  32
ATOM     32  N   UNL     1      23.756  27.989  33.309  1.00  0.00    -0.297 NA
ATOM     33  C   UNL     1      22.747  28.901  33.878  1.00  0.00     0.100 C 
ATOM     34  C   UNL     1      23.816  28.180  31.839  1.00  0.00     0.100 C 
ATOM     35  C   UNL     1      21.328  28.808  33.252  1.00  0.00     0.099 C 
ATOM     36  C   UNL     1      22.528  28.723  31.160  1.00  0.00     0.099 C 
ATOM     37  N   UNL     1      21.309  28.307  31.864  1.00  0.00    -0.304 NA
ATOM     38  C   UNL     1      20.103  28.733  31.162  1.00  0.00     0.105 C 
ENDBRANCH  31  32
ENDBRANCH  30  31
ENDBRANCH   2  25
TORSDOF 7
ENDMDL
MODEL 2
REMARK VINA RESULT:   -11.951      2.823     12.784
REMARK INTER + INTRA:         -17.162
REMARK INTER:                 -16.427
REMARK INTRA:                  -0.735
REMARK UNBOUND:                -0.320
REMARK SMILES Cc1ccc(NC(=O)c2ccc(CN3CCN(C)CC3)cc2)cc1Nc1nc(-c2cccnc2)cs1
REMARK SMILES IDX 6 1 7 2 8 3 5 5 2 6 3 7 24 8 4 9 23 10 1 11 25 12 26 14
REMARK SMILES IDX 27 15 36 16 28 17 35 18 29 19 30 20 34 21 31 22 33 23 32 24
REMARK SMILES IDX 9 25 10 26 22 27 11 28 21 29 12 30 13 31 14 32 15 33 20 34
REMARK SMILES IDX 16 35 19 36 17 37 18 38
REMARK H PARENT 6 4 25 13
ROOT
ATOM      1  N   UNL     1      28.095  26.359  44.728  1.00  0.00    -0.322 N 
ATOM      2  C   UNL     1      28.729  25.244  45.248  1.00  0.00     0.255 C 
ATOM      3  O   UNL     1      28.344  24.083  45.187  1.00  0.00    -0.269 OA
ATOM      4  H   UNL     1      28.619  27.223  44.737  1.00  0.00     0.170 HD
ENDROOT
BRANCH   1   5
ATOM      5  C   UNL     1      26.847  26.404  44.072  1.00  0.00     0.043 A 
ATOM      6  C   UNL     1      24.270  26.496  42.920  1.00  0.00    -0.027 A 
ATOM      7  C   UNL     1      24.432  26.248  44.289  1.00  0.00     0.008 A 
ATOM      8  C   UNL     1      25.412  26.668  42.116  1.00  0.00     0.045 A 
ATOM      9  C   UNL     1      25.708  26.205  44.858  1.00  0.00     0.026 A 
ATOM     10  C   UNL     1      26.690  26.623  42.703  1.00  0.00     0.052 A 
ATOM     11  C   UNL     1      22.882  26.538  42.341  1.00  0.00     0.046 C 
BRANCH   8  12
ATOM     12  N   UNL     1      25.291  26.875  40.721  1.00  0.00    -0.331 N 
ATOM     13  H   UNL     1      25.892  27.637  40.417  1.00  0.00     0.169 HD
BRANCH  12  14
ATOM     14  C   UNL     1      25.308  25.862  39.811  1.00  0.00     0.187 A 
ATOM     15  N   UNL     1      25.329  26.109  38.518  1.00  0.00    -0.220 NA
ATOM     16  S   UNL     1      25.280  24.180  40.203  1.00  0.00    -0.105 S 
ATOM     17  C   UNL     1      25.318  24.937  37.776  1.00  0.00     0.085 A 
ATOM     18  C   UNL     1      25.302  23.786  38.537  1.00  0.00     0.097 A 
BRANCH  17  19
ATOM     19  C   UNL     1      25.323  24.980  36.317  1.00  0.00     0.019 A 
ATOM     20  C   UNL     1      26.210  24.242  35.526  1.00  0.00     0.013 A 
ATOM     21  C   UNL     1      24.402  25.780  35.641  1.00  0.00     0.121 A 
ATOM     22  C   UNL     1      26.144  24.330  34.133  1.00  0.00     0.021 A 
ATOM     23  N   UNL     1      24.314  25.886  34.290  1.00  0.00    -0.264 NA
ATOM     24  C   UNL     1      25.188  25.157  33.568  1.00  0.00     0.111 A 
ENDBRANCH  17  19
ENDBRANCH  12  14
ENDBRANCH   8  12
ENDBRANCH   1   5
BRANCH   2  25
ATOM     25  C   UNL     1      30.041  25.525  45.896  1.00  0.00     0.040 A 
ATOM     26  C   UNL     1      30.489  26.847  45.952  1.00  0.00     0.014 A 
ATOM     27  C   UNL     1      30.830  24.498  46.431  1.00  0.00     0.014 A 
ATOM     28  C   UNL     1      31.704  27.147  46.570  1.00  0.00     0.006 A 
ATOM     29  C   UNL     1      32.049  24.802  47.045  1.00  0.00     0.006 A 
ATOM     30  C   UNL     1      32.492  26.130  47.132  1.00  0.00    -0.034 A 
BRANCH  30  31
ATOM     31  C   UNL     1      33.821  26.458  47.787  1.00  0.00     0.120 C 
BRANCH  31  32
ATOM     32  N   UNL     1      34.932  26.518  46.820  1.00  0.00    -0.297 NA
ATOM     33  C   UNL     1      36.224  26.335  47.506  1.00  0.00     0.100 C 
ATOM     34  C   UNL     1      34.946  27.806  46.083  1.00  0.00     0.100 C 
ATOM     35  C   UNL     1      36.660  27.499  48.438  1.00  0.00     0.099 C 
ATOM     36  C   UNL     1      35.901  28.903  46.628  1.00  0.00     0.099 C 
ATOM     37  N   UNL     1      36.085  28.810  48.082  1.00  0.00    -0.304 NA
ATOM     38  C   UNL     1      36.899  29.905  48.598  1.00  0.00     0.105 C 
ENDBRANCH  31  32
ENDBRANCH  30  31
ENDBRANCH   2  25
TORSDOF 7
ENDMDL
MODEL 3
REMARK VINA RESULT:   -10.444      4.994     10.080
REMARK INTER + INTRA:         -15.037
REMARK INTER:                 -14.922
REMARK INTRA:                  -0.115
REMARK UNBOUND:                -0.320
REMARK SMILES Cc1ccc(NC(=O)c2ccc(CN3CCN(C)CC3)cc2)cc1Nc1nc(-c2cccnc2)cs1
REMARK SMILES IDX 6 1 7 2 8 3 5 5 2 6 3 7 24 8 4 9 23 10 1 11 25 12 26 14
REMARK SMILES IDX 27 15 36 16 28 17 35 18 29 19 30 20 34 21 31 22 33 23 32 24
REMARK SMILES IDX 9 25 10 26 22 27 11 28 21 29 12 30 13 31 14 32 15 33 20 34
REMARK SMILES IDX 16 35 19 36 17 37 18 38
REMARK H PARENT 6 4 25 13
ROOT
ATOM      1  N   UNL     1      32.168  25.313  46.931  1.00  0.00    -0.322 N 
ATOM      2  C   UNL     1      31.418  26.377  46.464  1.00  0.00     0.255 C 
ATOM      3  O   UNL     1      31.688  27.568  46.560  1.00  0.00    -0.269 OA
ATOM      4  H   UNL     1      31.877  24.390  46.639  1.00  0.00     0.170 HD
ENDROOT
BRANCH   1   5
ATOM      5  C   UNL     1      33.371  25.373  47.665  1.00  0.00     0.043 A 
ATOM      6  C   UNL     1      35.721  25.350  49.233  1.00  0.00    -0.027 A 
ATOM      7  C   UNL     1      34.615  24.570  49.593  1.00  0.00     0.008 A 
ATOM      8  C   UNL     1      35.636  26.173  48.095  1.00  0.00     0.045 A 
ATOM      9  C   UNL     1      33.454  24.581  48.816  1.00  0.00     0.026 A 
ATOM     10  C   UNL     1      34.462  26.172  47.320  1.00  0.00     0.052 A 
ATOM     11  C   UNL     1      36.955  25.314  50.091  1.00  0.00     0.046 C 
BRANCH   8  12
ATOM     12  N   UNL     1      36.716  27.010  47.724  1.00  0.00    -0.331 N 
ATOM     13  H   UNL     1      37.272  26.577  46.991  1.00  0.00     0.169 HD
BRANCH  12  14
ATOM     14  C   UNL     1      36.582  28.345  47.495  1.00  0.00     0.187 A 
ATOM     15  N   UNL     1      36.035  28.794  46.385  1.00  0.00    -0.220 NA
ATOM     16  S   UNL     1      37.110  29.591  48.569  1.00  0.00    -0.105 S 
ATOM     17  C   UNL     1      36.021  30.181  46.348  1.00  0.00     0.085 A 
ATOM     18  C   UNL     1      36.561  30.781  47.467  1.00  0.00     0.097 A 
BRANCH  17  19
ATOM     19  C   UNL     1      35.472  30.890  45.196  1.00  0.00     0.019 A 
ATOM     20  C   UNL     1      35.691  30.497  43.872  1.00  0.00     0.013 A 
ATOM     21  C   UNL     1      34.672  32.016  45.389  1.00  0.00     0.121 A 
ATOM     22  C   UNL     1      35.120  31.223  42.824  1.00  0.00     0.021 A 
ATOM     23  N   UNL     1      34.104  32.742  44.391  1.00  0.00    -0.264 NA
ATOM     24  C   UNL     1      34.343  32.326  43.131  1.00  0.00     0.111 A 
ENDBRANCH  17  19
ENDBRANCH  12  14
ENDBRANCH   8  12
ENDBRANCH   1   5
BRANCH   2  25
ATOM     25  C   UNL     1      30.183  25.986  45.727  1.00  0.00     0.040 A 
ATOM     26  C   UNL     1      29.709  26.833  44.721  1.00  0.00     0.014 A 
ATOM     27  C   UNL     1      29.490  24.807  46.029  1.00  0.00     0.014 A 
ATOM     28  C   UNL     1      28.566  26.487  43.998  1.00  0.00     0.006 A 
ATOM     29  C   UNL     1      28.343  24.466  45.306  1.00  0.00     0.006 A 
ATOM     30  C   UNL     1      27.878  25.295  44.275  1.00  0.00    -0.034 A 
BRANCH  30  31
ATOM     31  C   UNL     1      26.625  24.931  43.499  1.00  0.00     0.120 C 
BRANCH  31  32
ATOM     32  N   UNL     1      25.874  26.116  43.043  1.00  0.00    -0.297 NA
ATOM     33  C   UNL     1      24.518  25.731  42.610  1.00  0.00     0.100 C 
ATOM     34  C   UNL     1      26.568  26.806  41.928  1.00  0.00     0.100 C 
ATOM     35  C   UNL     1      24.443  24.888  41.307  1.00  0.00     0.099 C 
ATOM     36  C   UNL     1      26.088  26.455  40.493  1.00  0.00     0.099 C 
ATOM     37  N   UNL     1      25.586  25.079  40.393  1.00  0.00    -0.304 NA
ATOM     38  C   UNL     1      25.234  24.726  39.022  1.00  0.00     0.105 C 
ENDBRANCH  31  32
ENDBRANCH  30  31
ENDBRANCH   2  25
TORSDOF 7
ENDMDL
MODEL 4
REMARK VINA RESULT:   -10.303      3.637     11.929
REMARK INTER + INTRA:         -14.840
REMARK INTER:                 -14.559
REMARK INTRA:                  -0.281
REMARK UNBOUND:                -0.320
REMARK SMILES Cc1ccc(NC(=O)c2ccc(CN3CCN(C)CC3)cc2)cc1Nc1nc(-c2cccnc2)cs1
REMARK SMILES IDX 6 1 7 2 8 3 5 5 2 6 3 7 24 8 4 9 23 10 1 11 25 12 26 14
REMARK SMILES IDX 27 15 36 16 28 17 35 18 29 19 30 20 34 21 31 22 33 23 32 24
REMARK SMILES IDX 9 25 10 26 22 27 11 28 21 29 12 30 13 31 14 32 15 33 20 34
REMARK SMILES IDX 16 35 19 36 17 37 18 38
REMARK H PARENT 6 4 25 13
ROOT
ATOM      1  N   UNL     1      23.623  26.203  35.080  1.00  0.00    -0.322 N 
ATOM      2  C   UNL     1      24.620  25.304  35.417  1.00  0.00     0.255 C 
ATOM      3  O   UNL     1      25.332  24.672  34.648  1.00  0.00    -0.269 OA
ATOM      4  H   UNL     1      23.231  26.749  35.834  1.00  0.00     0.170 HD
ENDROOT
BRANCH   1   5
ATOM      5  C   UNL     1      23.177  26.537  33.784  1.00  0.00     0.043 A 
ATOM      6  C   UNL     1      22.303  27.032  31.144  1.00  0.00    -0.027 A 
ATOM      7  C   UNL     1      22.873  25.800  31.488  1.00  0.00     0.008 A 
ATOM      8  C   UNL     1      22.199  28.036  32.125  1.00  0.00     0.045 A 
ATOM      9  C   UNL     1      23.303  25.556  32.795  1.00  0.00     0.026 A 
ATOM     10  C   UNL     1      22.635  27.775  33.437  1.00  0.00     0.052 A 
ATOM     11  C   UNL     1      21.848  27.261  29.729  1.00  0.00     0.046 C 
BRANCH   8  12
ATOM     12  N   UNL     1      21.670  29.309  31.805  1.00  0.00    -0.331 N 
ATOM     13  H   UNL     1      21.092  29.260  30.970  1.00  0.00     0.169 HD
BRANCH  12  14
ATOM     14  C   UNL     1      21.106  30.137  32.727  1.00  0.00     0.187 A 
ATOM     15  N   UNL     1      21.784  30.551  33.776  1.00  0.00    -0.220 NA
ATOM     16  S   UNL     1      19.480  30.719  32.670  1.00  0.00    -0.105 S 
ATOM     17  C   UNL     1      21.012  31.363  34.594  1.00  0.00     0.085 A 
ATOM     18  C   UNL     1      19.727  31.569  34.135  1.00  0.00     0.097 A 
BRANCH  17  19
ATOM     19  C   UNL     1      21.565  31.921  35.825  1.00  0.00     0.019 A 
ATOM     20  C   UNL     1      21.010  33.019  36.492  1.00  0.00     0.013 A 
ATOM     21  C   UNL     1      22.699  31.349  36.400  1.00  0.00     0.121 A 
ATOM     22  C   UNL     1      21.593  33.487  37.672  1.00  0.00     0.021 A 
ATOM     23  N   UNL     1      23.289  31.783  37.544  1.00  0.00    -0.264 NA
ATOM     24  C   UNL     1      22.719  32.843  38.153  1.00  0.00     0.111 A 
ENDBRANCH  17  19
ENDBRANCH  12  14
ENDBRANCH   8  12
ENDBRANCH   1   5
BRANCH   2  25
ATOM     25  C   UNL     1      24.852  25.161  36.882  1.00  0.00     0.040 A 
ATOM     26  C   UNL     1      24.332  26.134  37.740  1.00  0.00     0.014 A 
ATOM     27  C   UNL     1      25.585  24.089  37.407  1.00  0.00     0.014 A 
ATOM     28  C   UNL     1      24.515  26.019  39.119  1.00  0.00     0.006 A 
ATOM     29  C   UNL     1      25.770  23.979  38.789  1.00  0.00     0.006 A 
ATOM     30  C   UNL     1      25.226  24.936  39.659  1.00  0.00    -0.034 A 
BRANCH  30  31
ATOM     31  C   UNL     1      25.438  24.824  41.158  1.00  0.00     0.120 C 
BRANCH  31  32
ATOM     32  N   UNL     1      25.410  26.133  41.835  1.00  0.00    -0.297 NA
ATOM     33  C   UNL     1      26.763  26.716  41.888  1.00  0.00     0.100 C 
ATOM     34  C   UNL     1      24.869  26.024  43.212  1.00  0.00     0.100 C 
ATOM     35  C   UNL     1      27.771  25.989  42.820  1.00  0.00     0.099 C 
ATOM     36  C   UNL     1      25.913  25.912  44.358  1.00  0.00     0.099 C 
ATOM     37  N   UNL     1      27.144  25.239  43.925  1.00  0.00    -0.304 NA
ATOM     38  C   UNL     1      28.076  25.047  45.032  1.00  0.00     0.105 C 
ENDBRANCH  31  32
ENDBRANCH  30  31
ENDBRANCH   2  25
TORSDOF 7
ENDMDL
MODEL 5
REMARK VINA RESULT:   -10.146      3.790     12.458
REMARK INTER + INTRA:         -14.618
REMARK INTER:                 -13.915
REMARK INTRA:                  -0.703
REMARK UNBOUND:                -0.320
REMARK SMILES Cc1ccc(NC(=O)c2ccc(CN3CCN(C)CC3)cc2)cc1Nc1nc(-c2cccnc2)cs1
REMARK SMILES IDX 6 1 7 2 8 3 5 5 2 6 3 7 24 8 4 9 23 10 1 11 25 12 26 14
REMARK SMILES IDX 27 15 36 16 28 17 35 18 29 19 30 20 34 21 31 22 33 23 32 24
REMARK SMILES IDX 9 25 10 26 22 27 11 28 21 29 12 30 13 31 14 32 15 33 20 34
REMARK SMILES IDX 16 35 19 36 17 37 18 38
REMARK H PARENT 6 4 25 13
ROOT
ATOM      1  N   UNL     1      23.642  26.203  34.956  1.00  0.00    -0.322 N 
ATOM      2  C   UNL     1      24.630  25.298  35.299  1.00  0.00     0.255 C 
ATOM      3  O   UNL     1      25.328  24.644  34.534  1.00  0.00    -0.269 OA
ATOM      4  H   UNL     1      23.263  26.766  35.705  1.00  0.00     0.170 HD
ENDROOT
BRANCH   1   5
ATOM      5  C   UNL     1      23.189  26.523  33.659  1.00  0.00     0.043 A 
ATOM      6  C   UNL     1      22.279  26.986  31.025  1.00  0.00    -0.027 A 
ATOM      7  C   UNL     1      22.718  25.715  31.416  1.00  0.00     0.008 A 
ATOM      8  C   UNL     1      22.327  28.042  31.954  1.00  0.00     0.045 A 
ATOM      9  C   UNL     1      23.166  25.487  32.720  1.00  0.00     0.026 A 
ATOM     10  C   UNL     1      22.779  27.797  33.264  1.00  0.00     0.052 A 
ATOM     11  C   UNL     1      21.802  27.196  29.615  1.00  0.00     0.046 C 
BRANCH   8  12
ATOM     12  N   UNL     1      21.935  29.351  31.584  1.00  0.00    -0.331 N 
ATOM     13  H   UNL     1      20.925  29.409  31.482  1.00  0.00     0.169 HD
BRANCH  12  14
ATOM     14  C   UNL     1      22.419  30.473  32.183  1.00  0.00     0.187 A 
ATOM     15  N   UNL     1      23.581  30.985  31.834  1.00  0.00    -0.220 NA
ATOM     16  S   UNL     1      21.626  31.337  33.452  1.00  0.00    -0.105 S 
ATOM     17  C   UNL     1      23.890  32.109  32.587  1.00  0.00     0.085 A 
ATOM     18  C   UNL     1      22.926  32.451  33.513  1.00  0.00     0.097 A 
BRANCH  17  19
ATOM     19  C   UNL     1      25.143  32.826  32.374  1.00  0.00     0.019 A 
ATOM     20  C   UNL     1      26.373  32.399  32.884  1.00  0.00     0.013 A 
ATOM     21  C   UNL     1      25.154  33.998  31.617  1.00  0.00     0.121 A 
ATOM     22  C   UNL     1      27.531  33.137  32.626  1.00  0.00     0.021 A 
ATOM     23  N   UNL     1      26.263  34.736  31.351  1.00  0.00    -0.264 NA
ATOM     24  C   UNL     1      27.426  34.286  31.862  1.00  0.00     0.111 A 
ENDBRANCH  17  19
ENDBRANCH  12  14
ENDBRANCH   8  12
ENDBRANCH   1   5
BRANCH   2  25
ATOM     25  C   UNL     1      24.873  25.174  36.764  1.00  0.00     0.040 A 
ATOM     26  C   UNL     1      24.352  26.154  37.614  1.00  0.00     0.014 A 
ATOM     27  C   UNL     1      25.617  24.114  37.297  1.00  0.00     0.014 A 
ATOM     28  C   UNL     1      24.544  26.057  38.993  1.00  0.00     0.006 A 
ATOM     29  C   UNL     1      25.812  24.022  38.679  1.00  0.00     0.006 A 
ATOM     30  C   UNL     1      25.267  24.986  39.541  1.00  0.00    -0.034 A 
BRANCH  30  31
ATOM     31  C   UNL     1      25.489  24.894  41.040  1.00  0.00     0.120 C 
BRANCH  31  32
ATOM     32  N   UNL     1      25.452  26.211  41.702  1.00  0.00    -0.297 NA
ATOM     33  C   UNL     1      26.809  26.778  41.798  1.00  0.00     0.100 C 
ATOM     34  C   UNL     1      24.860  26.123  43.059  1.00  0.00     0.100 C 
ATOM     35  C   UNL     1      27.774  26.050  42.774  1.00  0.00     0.099 C 
ATOM     36  C   UNL     1      25.860  26.011  44.243  1.00  0.00     0.099 C 
ATOM     37  N   UNL     1      27.099  25.320  43.863  1.00  0.00    -0.304 NA
ATOM     38  C   UNL     1      27.987  25.129  45.005  1.00  0.00     0.105 C 
ENDBRANCH  31  32
ENDBRANCH  30  31
ENDBRANCH   2  25
TORSDOF 7
ENDMDL
