MODEL 1
REMARK VINA RESULT:   -10.543      0.000      0.000
REMARK INTER + INTRA:         -13.216
REMARK INTER:                 -12.392
REMARK INTRA:                  -0.824
REMARK UNBOUND:                -0.824
REMARK SMILES NC(=O)c1cccc2cn(-c3ccc([C@@H]4CCCNC4)cc3)nc12
REMARK SMILES IDX 10 1 23 2 8 3 9 4 24 5 4 6 7 7 5 8 6 9 2 10 3 11 1 12 11 15
REMARK SMILES IDX 12 16 22 17 13 18 21 19 14 20 15 21 16 22 20 23 17 24 19 25
REMARK SMILES IDX 18 26
REMARK H PARENT 1 13 1 14 19 27
ROOT
ATOM      1  N   UNL     1       5.564   3.436  40.447  1.00  0.00    -0.240 N 
ATOM      2  N   UNL     1       4.776   3.414  39.355  1.00  0.00    -0.167 NA
ATOM      3  C   UNL     1       5.311   5.530  39.985  1.00  0.00     0.021 A 
ATOM      4  C   UNL     1       5.918   4.684  40.871  1.00  0.00     0.123 A 
ATOM      5  C   UNL     1       4.597   4.709  39.037  1.00  0.00     0.105 A 
ATOM      6  C   UNL     1       3.864   5.297  37.990  1.00  0.00     0.067 A 
ATOM      7  C   UNL     1       5.384   6.916  40.010  1.00  0.00     0.012 A 
ATOM      8  C   UNL     1       3.917   6.709  37.989  1.00  0.00     0.016 A 
ATOM      9  C   UNL     1       4.642   7.478  38.952  1.00  0.00     0.002 A 
ENDROOT
BRANCH   6  10
ATOM     10  C   UNL     1       3.126   4.537  37.006  1.00  0.00     0.250 C 
ATOM     11  O   UNL     1       2.051   4.951  36.528  1.00  0.00    -0.269 OA
ATOM     12  N   UNL     1       3.660   3.319  36.584  1.00  0.00    -0.366 N 
ATOM     13  H   UNL     1       4.531   2.939  36.936  1.00  0.00     0.159 HD
ATOM     14  H   UNL     1       3.174   2.759  35.891  1.00  0.00     0.159 HD
ENDBRANCH   6  10
BRANCH   1  15
ATOM     15  C   UNL     1       5.949   2.252  41.047  1.00  0.00     0.065 A 
ATOM     16  C   UNL     1       6.530   1.239  40.283  1.00  0.00     0.028 A 
ATOM     17  C   UNL     1       5.760   2.070  42.418  1.00  0.00     0.028 A 
ATOM     18  C   UNL     1       6.919   0.045  40.889  1.00  0.00     0.006 A 
ATOM     19  C   UNL     1       6.149   0.876  43.024  1.00  0.00     0.006 A 
ATOM     20  C   UNL     1       6.729  -0.137  42.259  1.00  0.00    -0.043 A 
BRANCH  20  21
ATOM     21  C   UNL     1       7.151  -1.438  42.918  1.00  0.00     0.033 C 
ATOM     22  C   UNL     1       7.953  -1.190  44.206  1.00  0.00     0.011 C 
ATOM     23  C   UNL     1       7.937  -2.346  41.954  1.00  0.00     0.089 C 
ATOM     24  C   UNL     1       8.403  -2.516  44.814  1.00  0.00     0.016 C 
ATOM     25  N   UNL     1       8.311  -3.608  42.599  1.00  0.00    -0.316 NA
ATOM     26  C   UNL     1       9.133  -3.379  43.787  1.00  0.00     0.081 C 
ATOM     27  H   UNL     1       8.831  -4.182  41.935  1.00  0.00     0.122 HD
ENDBRANCH  20  21
ENDBRANCH   1  15
TORSDOF 3
ENDMDL
MODEL 2
REMARK VINA RESULT:    -9.805      1.687      2.594
REMARK INTER + INTRA:         -12.348
REMARK INTER:                 -11.511
REMARK INTRA:                  -0.838
REMARK UNBOUND:                -0.824
REMARK SMILES NC(=O)c1cccc2cn(-c3ccc([C@@H]4CCCNC4)cc3)nc12
REMARK SMILES IDX 10 1 23 2 8 3 9 4 24 5 4 6 7 7 5 8 6 9 2 10 3 11 1 12 11 15
REMARK SMILES IDX 12 16 22 17 13 18 21 19 14 20 15 21 16 22 20 23 17 24 19 25
REMARK SMILES IDX 18 26
REMARK H PARENT 1 13 1 14 19 27
ROOT
ATOM      1  N   UNL     1       5.315   2.141  39.532  1.00  0.00    -0.240 N 
ATOM      2  N   UNL     1       5.402   3.400  40.003  1.00  0.00    -0.167 NA
ATOM      3  C   UNL     1       4.176   3.279  38.094  1.00  0.00     0.021 A 
ATOM      4  C   UNL     1       4.589   2.009  38.384  1.00  0.00     0.123 A 
ATOM      5  C   UNL     1       4.699   4.141  39.127  1.00  0.00     0.105 A 
ATOM      6  C   UNL     1       4.440   5.524  39.103  1.00  0.00     0.067 A 
ATOM      7  C   UNL     1       3.398   3.648  37.005  1.00  0.00     0.012 A 
ATOM      8  C   UNL     1       3.651   5.931  38.005  1.00  0.00     0.016 A 
ATOM      9  C   UNL     1       3.155   5.036  37.006  1.00  0.00     0.002 A 
ENDROOT
BRANCH   6  10
ATOM     10  C   UNL     1       4.932   6.445  40.104  1.00  0.00     0.250 C 
ATOM     11  O   UNL     1       4.169   7.223  40.710  1.00  0.00    -0.269 OA
ATOM     12  N   UNL     1       6.296   6.430  40.394  1.00  0.00    -0.366 N 
ATOM     13  H   UNL     1       6.959   5.814  39.936  1.00  0.00     0.159 HD
ATOM     14  H   UNL     1       6.678   7.058  41.095  1.00  0.00     0.159 HD
ENDBRANCH   6  10
BRANCH   1  15
ATOM     15  C   UNL     1       5.938   1.106  40.204  1.00  0.00     0.065 A 
ATOM     16  C   UNL     1       6.658   0.146  39.494  1.00  0.00     0.028 A 
ATOM     17  C   UNL     1       5.848   1.023  41.595  1.00  0.00     0.028 A 
ATOM     18  C   UNL     1       7.288  -0.897  40.172  1.00  0.00     0.006 A 
ATOM     19  C   UNL     1       6.477  -0.020  42.273  1.00  0.00     0.006 A 
ATOM     20  C   UNL     1       7.197  -0.981  41.562  1.00  0.00    -0.043 A 
BRANCH  20  21
ATOM     21  C   UNL     1       7.880  -2.117  42.301  1.00  0.00     0.033 C 
ATOM     22  C   UNL     1       7.438  -2.190  43.771  1.00  0.00     0.011 C 
ATOM     23  C   UNL     1       9.415  -2.033  42.199  1.00  0.00     0.089 C 
ATOM     24  C   UNL     1       8.181  -3.310  44.495  1.00  0.00     0.016 C 
ATOM     25  N   UNL     1      10.056  -3.153  42.893  1.00  0.00    -0.316 NA
ATOM     26  C   UNL     1       9.691  -3.185  44.309  1.00  0.00     0.081 C 
ATOM     27  H   UNL     1      11.069  -3.064  42.808  1.00  0.00     0.122 HD
ENDBRANCH  20  21
ENDBRANCH   1  15
TORSDOF 3
ENDMDL
MODEL 3
REMARK VINA RESULT:    -9.694      4.368      5.113
REMARK INTER + INTRA:         -12.219
REMARK INTER:                 -11.408
REMARK INTRA:                  -0.811
REMARK UNBOUND:                -0.824
REMARK SMILES NC(=O)c1cccc2cn(-c3ccc([C@@H]4CCCNC4)cc3)nc12
REMARK SMILES IDX 10 1 23 2 8 3 9 4 24 5 4 6 7 7 5 8 6 9 2 10 3 11 1 12 11 15
REMARK SMILES IDX 12 16 22 17 13 18 21 19 14 20 15 21 16 22 20 23 17 24 19 25
REMARK SMILES IDX 18 26
REMARK H PARENT 1 13 1 14 19 27
ROOT
ATOM      1  N   UNL     1       4.272   2.126  39.341  1.00  0.00    -0.240 N 
ATOM      2  N   UNL     1       3.923   3.195  38.600  1.00  0.00    -0.167 NA
ATOM      3  C   UNL     1       5.306   3.751  40.314  1.00  0.00     0.021 A 
ATOM      4  C   UNL     1       5.104   2.402  40.387  1.00  0.00     0.123 A 
ATOM      5  C   UNL     1       4.554   4.232  39.181  1.00  0.00     0.105 A 
ATOM      6  C   UNL     1       4.562   5.598  38.843  1.00  0.00     0.067 A 
ATOM      7  C   UNL     1       6.094   4.500  41.179  1.00  0.00     0.012 A 
ATOM      8  C   UNL     1       5.354   6.387  39.705  1.00  0.00     0.016 A 
ATOM      9  C   UNL     1       6.084   5.861  40.818  1.00  0.00     0.002 A 
ENDROOT
BRANCH   6  10
ATOM     10  C   UNL     1       3.831   6.148  37.722  1.00  0.00     0.250 C 
ATOM     11  O   UNL     1       4.312   7.048  37.005  1.00  0.00    -0.269 OA
ATOM     12  N   UNL     1       2.567   5.629  37.446  1.00  0.00    -0.366 N 
ATOM     13  H   UNL     1       2.132   4.893  37.992  1.00  0.00     0.159 HD
ATOM     14  H   UNL     1       2.026   5.984  36.664  1.00  0.00     0.159 HD
ENDBRANCH   6  10
BRANCH   1  15
ATOM     15  C   UNL     1       3.790   0.871  39.017  1.00  0.00     0.065 A 
ATOM     16  C   UNL     1       4.111   0.296  37.787  1.00  0.00     0.028 A 
ATOM     17  C   UNL     1       2.982   0.179  39.920  1.00  0.00     0.028 A 
ATOM     18  C   UNL     1       3.626  -0.969  37.460  1.00  0.00     0.006 A 
ATOM     19  C   UNL     1       2.497  -1.087  39.594  1.00  0.00     0.006 A 
ATOM     20  C   UNL     1       2.818  -1.661  38.363  1.00  0.00    -0.043 A 
BRANCH  20  21
ATOM     21  C   UNL     1       2.287  -3.038  38.007  1.00  0.00     0.033 C 
ATOM     22  C   UNL     1       0.794  -3.179  38.344  1.00  0.00     0.011 C 
ATOM     23  C   UNL     1       3.103  -4.162  38.673  1.00  0.00     0.089 C 
ATOM     24  C   UNL     1       0.307  -4.589  38.020  1.00  0.00     0.016 C 
ATOM     25  N   UNL     1       2.594  -5.483  38.296  1.00  0.00    -0.316 NA
ATOM     26  C   UNL     1       1.192  -5.646  38.677  1.00  0.00     0.081 C 
ATOM     27  H   UNL     1       3.154  -6.201  38.755  1.00  0.00     0.122 HD
ENDBRANCH  20  21
ENDBRANCH   1  15
TORSDOF 3
ENDMDL
MODEL 4
REMARK VINA RESULT:    -9.570      5.064      9.079
REMARK INTER + INTRA:         -12.072
REMARK INTER:                 -11.236
REMARK INTRA:                  -0.836
REMARK UNBOUND:                -0.824
REMARK SMILES NC(=O)c1cccc2cn(-c3ccc([C@@H]4CCCNC4)cc3)nc12
REMARK SMILES IDX 10 1 23 2 8 3 9 4 24 5 4 6 7 7 5 8 6 9 2 10 3 11 1 12 11 15
REMARK SMILES IDX 12 16 22 17 13 18 21 19 14 20 15 21 16 22 20 23 17 24 19 25
REMARK SMILES IDX 18 26
REMARK H PARENT 1 13 1 14 19 27
ROOT
ATOM      1  N   UNL     1       3.212  -1.762  39.312  1.00  0.00    -0.240 N 
ATOM      2  N   UNL     1       2.904  -2.189  40.552  1.00  0.00    -0.167 NA
ATOM      3  C   UNL     1       2.847  -3.870  39.024  1.00  0.00     0.021 A 
ATOM      4  C   UNL     1       3.193  -2.731  38.352  1.00  0.00     0.123 A 
ATOM      5  C   UNL     1       2.669  -3.506  40.409  1.00  0.00     0.105 A 
ATOM      6  C   UNL     1       2.305  -4.476  41.362  1.00  0.00     0.067 A 
ATOM      7  C   UNL     1       2.700  -5.130  38.460  1.00  0.00     0.012 A 
ATOM      8  C   UNL     1       2.147  -5.769  40.819  1.00  0.00     0.016 A 
ATOM      9  C   UNL     1       2.336  -6.079  39.435  1.00  0.00     0.002 A 
ENDROOT
BRANCH   6  10
ATOM     10  C   UNL     1       2.111  -4.182  42.766  1.00  0.00     0.250 C 
ATOM     11  O   UNL     1       1.167  -4.676  43.414  1.00  0.00    -0.269 OA
ATOM     12  N   UNL     1       3.027  -3.336  43.391  1.00  0.00    -0.366 N 
ATOM     13  H   UNL     1       3.815  -2.913  42.912  1.00  0.00     0.159 HD
ATOM     14  H   UNL     1       2.928  -3.111  44.376  1.00  0.00     0.159 HD
ENDBRANCH   6  10
BRANCH   1  15
ATOM     15  C   UNL     1       3.513  -0.430  39.094  1.00  0.00     0.065 A 
ATOM     16  C   UNL     1       4.172  -0.046  37.926  1.00  0.00     0.028 A 
ATOM     17  C   UNL     1       3.156   0.530  40.042  1.00  0.00     0.028 A 
ATOM     18  C   UNL     1       4.475   1.297  37.706  1.00  0.00     0.006 A 
ATOM     19  C   UNL     1       3.459   1.873  39.821  1.00  0.00     0.006 A 
ATOM     20  C   UNL     1       4.119   2.257  38.653  1.00  0.00    -0.043 A 
BRANCH  20  21
ATOM     21  C   UNL     1       4.450   3.719  38.415  1.00  0.00     0.033 C 
ATOM     22  C   UNL     1       4.815   4.442  39.722  1.00  0.00     0.011 C 
ATOM     23  C   UNL     1       3.313   4.458  37.684  1.00  0.00     0.089 C 
ATOM     24  C   UNL     1       5.092   5.919  39.452  1.00  0.00     0.016 C 
ATOM     25  N   UNL     1       3.662   5.860  37.438  1.00  0.00    -0.316 NA
ATOM     26  C   UNL     1       3.943   6.569  38.685  1.00  0.00     0.081 C 
ATOM     27  H   UNL     1       2.888   6.318  36.956  1.00  0.00     0.122 HD
ENDBRANCH  20  21
ENDBRANCH   1  15
TORSDOF 3
ENDMDL
MODEL 5
REMARK VINA RESULT:    -9.559      4.595      8.588
REMARK INTER + INTRA:         -12.060
REMARK INTER:                 -11.249
REMARK INTRA:                  -0.811
REMARK UNBOUND:                -0.824
REMARK SMILES NC(=O)c1cccc2cn(-c3ccc([C@@H]4CCCNC4)cc3)nc12
REMARK SMILES IDX 10 1 23 2 8 3 9 4 24 5 4 6 7 7 5 8 6 9 2 10 3 11 1 12 11 15
REMARK SMILES IDX 12 16 22 17 13 18 21 19 14 20 15 21 16 22 20 23 17 24 19 25
REMARK SMILES IDX 18 26
REMARK H PARENT 1 13 1 14 19 27
ROOT
ATOM      1  N   UNL     1       4.363  -1.119  38.551  1.00  0.00    -0.240 N 
ATOM      2  N   UNL     1       5.308  -1.849  37.927  1.00  0.00    -0.167 NA
ATOM      3  C   UNL     1       3.603  -3.133  38.704  1.00  0.00     0.021 A 
ATOM      4  C   UNL     1       3.313  -1.841  39.039  1.00  0.00     0.123 A 
ATOM      5  C   UNL     1       4.865  -3.117  38.003  1.00  0.00     0.105 A 
ATOM      6  C   UNL     1       5.435  -4.312  37.526  1.00  0.00     0.067 A 
ATOM      7  C   UNL     1       2.817  -4.240  38.993  1.00  0.00     0.012 A 
ATOM      8  C   UNL     1       4.658  -5.458  37.806  1.00  0.00     0.016 A 
ATOM      9  C   UNL     1       3.410  -5.421  38.505  1.00  0.00     0.002 A 
ENDROOT
BRANCH   6  10
ATOM     10  C   UNL     1       6.694  -4.368  36.817  1.00  0.00     0.250 C 
ATOM     11  O   UNL     1       6.918  -5.235  35.948  1.00  0.00    -0.269 OA
ATOM     12  N   UNL     1       7.659  -3.407  37.118  1.00  0.00    -0.366 N 
ATOM     13  H   UNL     1       7.526  -2.678  37.810  1.00  0.00     0.159 HD
ATOM     14  H   UNL     1       8.553  -3.410  36.637  1.00  0.00     0.159 HD
ENDBRANCH   6  10
BRANCH   1  15
ATOM     15  C   UNL     1       4.506   0.252  38.657  1.00  0.00     0.065 A 
ATOM     16  C   UNL     1       3.943   1.089  37.693  1.00  0.00     0.028 A 
ATOM     17  C   UNL     1       5.211   0.799  39.730  1.00  0.00     0.028 A 
ATOM     18  C   UNL     1       4.086   2.472  37.801  1.00  0.00     0.006 A 
ATOM     19  C   UNL     1       5.354   2.182  39.837  1.00  0.00     0.006 A 
ATOM     20  C   UNL     1       4.792   3.019  38.872  1.00  0.00    -0.043 A 
BRANCH  20  21
ATOM     21  C   UNL     1       4.949   4.524  38.989  1.00  0.00     0.033 C 
ATOM     22  C   UNL     1       5.460   4.939  40.378  1.00  0.00     0.011 C 
ATOM     23  C   UNL     1       3.646   5.271  38.645  1.00  0.00     0.089 C 
ATOM     24  C   UNL     1       5.558   6.459  40.477  1.00  0.00     0.016 C 
ATOM     25  N   UNL     1       3.825   6.722  38.735  1.00  0.00    -0.316 NA
ATOM     26  C   UNL     1       4.246   7.128  40.076  1.00  0.00     0.081 C 
ATOM     27  H   UNL     1       2.945   7.183  38.504  1.00  0.00     0.122 HD
ENDBRANCH  20  21
ENDBRANCH   1  15
TORSDOF 3
ENDMDL
MODEL 6
REMARK VINA RESULT:    -9.447      4.504      8.522
REMARK INTER + INTRA:         -11.928
REMARK INTER:                 -11.118
REMARK INTRA:                  -0.810
REMARK UNBOUND:                -0.824
REMARK SMILES NC(=O)c1cccc2cn(-c3ccc([C@@H]4CCCNC4)cc3)nc12
REMARK SMILES IDX 10 1 23 2 8 3 9 4 24 5 4 6 7 7 5 8 6 9 2 10 3 11 1 12 11 15
REMARK SMILES IDX 12 16 22 17 13 18 21 19 14 20 15 21 16 22 20 23 17 24 19 25
REMARK SMILES IDX 18 26
REMARK H PARENT 1 13 1 14 19 27
ROOT
ATOM      1  N   UNL     1       5.609  -1.138  38.300  1.00  0.00    -0.240 N 
ATOM      2  N   UNL     1       4.609  -2.040  38.285  1.00  0.00    -0.167 NA
ATOM      3  C   UNL     1       6.610  -2.967  37.740  1.00  0.00     0.021 A 
ATOM      4  C   UNL     1       6.837  -1.640  37.979  1.00  0.00     0.123 A 
ATOM      5  C   UNL     1       5.199  -3.198  37.938  1.00  0.00     0.105 A 
ATOM      6  C   UNL     1       4.653  -4.483  37.762  1.00  0.00     0.067 A 
ATOM      7  C   UNL     1       7.572  -3.900  37.376  1.00  0.00     0.012 A 
ATOM      8  C   UNL     1       5.607  -5.455  37.391  1.00  0.00     0.016 A 
ATOM      9  C   UNL     1       6.998  -5.175  37.207  1.00  0.00     0.002 A 
ENDROOT
BRANCH   6  10
ATOM     10  C   UNL     1       3.250  -4.786  37.944  1.00  0.00     0.250 C 
ATOM     11  O   UNL     1       2.855  -5.537  38.858  1.00  0.00    -0.269 OA
ATOM     12  N   UNL     1       2.334  -4.196  37.073  1.00  0.00    -0.366 N 
ATOM     13  H   UNL     1       2.601  -3.573  36.319  1.00  0.00     0.159 HD
ATOM     14  H   UNL     1       1.341  -4.379  37.173  1.00  0.00     0.159 HD
ENDBRANCH   6  10
BRANCH   1  15
ATOM     15  C   UNL     1       5.348   0.181  38.622  1.00  0.00     0.065 A 
ATOM     16  C   UNL     1       5.888   0.736  39.782  1.00  0.00     0.028 A 
ATOM     17  C   UNL     1       4.544   0.957  37.786  1.00  0.00     0.028 A 
ATOM     18  C   UNL     1       5.625   2.067  40.106  1.00  0.00     0.006 A 
ATOM     19  C   UNL     1       4.281   2.288  38.110  1.00  0.00     0.006 A 
ATOM     20  C   UNL     1       4.821   2.843  39.271  1.00  0.00    -0.043 A 
BRANCH  20  21
ATOM     21  C   UNL     1       4.532   4.291  39.624  1.00  0.00     0.033 C 
ATOM     22  C   UNL     1       4.164   5.119  38.382  1.00  0.00     0.011 C 
ATOM     23  C   UNL     1       5.701   4.944  40.386  1.00  0.00     0.089 C 
ATOM     24  C   UNL     1       3.930   6.577  38.767  1.00  0.00     0.016 C 
ATOM     25  N   UNL     1       5.394   6.331  40.743  1.00  0.00    -0.316 NA
ATOM     26  C   UNL     1       5.109   7.139  39.558  1.00  0.00     0.081 C 
ATOM     27  H   UNL     1       6.187   6.732  41.242  1.00  0.00     0.122 HD
ENDBRANCH  20  21
ENDBRANCH   1  15
TORSDOF 3
ENDMDL
MODEL 7
REMARK VINA RESULT:    -9.414      5.058      7.252
REMARK INTER + INTRA:         -11.890
REMARK INTER:                 -11.049
REMARK INTRA:                  -0.840
REMARK UNBOUND:                -0.824
REMARK SMILES NC(=O)c1cccc2cn(-c3ccc([C@@H]4CCCNC4)cc3)nc12
REMARK SMILES IDX 10 1 23 2 8 3 9 4 24 5 4 6 7 7 5 8 6 9 2 10 3 11 1 12 11 15
REMARK SMILES IDX 12 16 22 17 13 18 21 19 14 20 15 21 16 22 20 23 17 24 19 25
REMARK SMILES IDX 18 26
REMARK H PARENT 1 13 1 14 19 27
ROOT
ATOM      1  N   UNL     1       2.749  -0.485  40.257  1.00  0.00    -0.240 N 
ATOM      2  N   UNL     1       3.102  -1.563  39.531  1.00  0.00    -0.167 NA
ATOM      3  C   UNL     1       0.870  -1.502  39.950  1.00  0.00     0.021 A 
ATOM      4  C   UNL     1       1.417  -0.397  40.540  1.00  0.00     0.123 A 
ATOM      5  C   UNL     1       1.949  -2.223  39.319  1.00  0.00     0.105 A 
ATOM      6  C   UNL     1       1.700  -3.420  38.623  1.00  0.00     0.067 A 
ATOM      7  C   UNL     1      -0.475  -1.847  39.967  1.00  0.00     0.012 A 
ATOM      8  C   UNL     1       0.339  -3.799  38.622  1.00  0.00     0.016 A 
ATOM      9  C   UNL     1      -0.696  -3.047  39.263  1.00  0.00     0.002 A 
ENDROOT
BRANCH   6  10
ATOM     10  C   UNL     1       2.732  -4.193  37.967  1.00  0.00     0.250 C 
ATOM     11  O   UNL     1       2.647  -4.515  36.765  1.00  0.00    -0.269 OA
ATOM     12  N   UNL     1       3.850  -4.561  38.716  1.00  0.00    -0.366 N 
ATOM     13  H   UNL     1       3.972  -4.321  39.694  1.00  0.00     0.159 HD
ATOM     14  H   UNL     1       4.598  -5.098  38.290  1.00  0.00     0.159 HD
ENDBRANCH   6  10
BRANCH   1  15
ATOM     15  C   UNL     1       3.709   0.425  40.657  1.00  0.00     0.065 A 
ATOM     16  C   UNL     1       4.230   1.339  39.741  1.00  0.00     0.028 A 
ATOM     17  C   UNL     1       4.158   0.432  41.979  1.00  0.00     0.028 A 
ATOM     18  C   UNL     1       5.198   2.258  40.144  1.00  0.00     0.006 A 
ATOM     19  C   UNL     1       5.126   1.350  42.383  1.00  0.00     0.006 A 
ATOM     20  C   UNL     1       5.647   2.264  41.465  1.00  0.00    -0.043 A 
BRANCH  20  21
ATOM     21  C   UNL     1       6.702   3.262  41.905  1.00  0.00     0.033 C 
ATOM     22  C   UNL     1       6.946   3.205  43.421  1.00  0.00     0.011 C 
ATOM     23  C   UNL     1       6.359   4.698  41.464  1.00  0.00     0.089 C 
ATOM     24  C   UNL     1       7.974   4.255  43.834  1.00  0.00     0.016 C 
ATOM     25  N   UNL     1       7.402   5.643  41.872  1.00  0.00    -0.316 NA
ATOM     26  C   UNL     1       7.590   5.640  43.322  1.00  0.00     0.081 C 
ATOM     27  H   UNL     1       7.142   6.581  41.567  1.00  0.00     0.122 HD
ENDBRANCH  20  21
ENDBRANCH   1  15
TORSDOF 3
ENDMDL
MODEL 8
REMARK VINA RESULT:    -9.389      4.725      6.510
REMARK INTER + INTRA:         -11.860
REMARK INTER:                 -11.046
REMARK INTRA:                  -0.814
REMARK UNBOUND:                -0.824
REMARK SMILES NC(=O)c1cccc2cn(-c3ccc([C@@H]4CCCNC4)cc3)nc12
REMARK SMILES IDX 10 1 23 2 8 3 9 4 24 5 4 6 7 7 5 8 6 9 2 10 3 11 1 12 11 15
REMARK SMILES IDX 12 16 22 17 13 18 21 19 14 20 15 21 16 22 20 23 17 24 19 25
REMARK SMILES IDX 18 26
REMARK H PARENT 1 13 1 14 19 27
ROOT
ATOM      1  N   UNL     1       3.012   0.288  40.930  1.00  0.00    -0.240 N 
ATOM      2  N   UNL     1       3.192  -0.503  39.854  1.00  0.00    -0.167 NA
ATOM      3  C   UNL     1       1.066  -0.603  40.649  1.00  0.00     0.021 A 
ATOM      4  C   UNL     1       1.751   0.267  41.450  1.00  0.00     0.123 A 
ATOM      5  C   UNL     1       1.993  -1.077  39.649  1.00  0.00     0.105 A 
ATOM      6  C   UNL     1       1.578  -1.996  38.668  1.00  0.00     0.067 A 
ATOM      7  C   UNL     1      -0.271  -0.951  40.788  1.00  0.00     0.012 A 
ATOM      8  C   UNL     1       0.221  -2.371  38.783  1.00  0.00     0.016 A 
ATOM      9  C   UNL     1      -0.658  -1.871  39.795  1.00  0.00     0.002 A 
ENDROOT
BRANCH   6  10
ATOM     10  C   UNL     1       2.452  -2.512  37.637  1.00  0.00     0.250 C 
ATOM     11  O   UNL     1       2.368  -3.690  37.236  1.00  0.00    -0.269 OA
ATOM     12  N   UNL     1       3.392  -1.645  37.081  1.00  0.00    -0.366 N 
ATOM     13  H   UNL     1       3.498  -0.677  37.366  1.00  0.00     0.159 HD
ATOM     14  H   UNL     1       4.019  -1.968  36.351  1.00  0.00     0.159 HD
ENDBRANCH   6  10
BRANCH   1  15
ATOM     15  C   UNL     1       4.065   1.037  41.422  1.00  0.00     0.065 A 
ATOM     16  C   UNL     1       4.574   0.775  42.693  1.00  0.00     0.028 A 
ATOM     17  C   UNL     1       4.620   2.055  40.644  1.00  0.00     0.028 A 
ATOM     18  C   UNL     1       5.636   1.530  43.189  1.00  0.00     0.006 A 
ATOM     19  C   UNL     1       5.682   2.811  41.140  1.00  0.00     0.006 A 
ATOM     20  C   UNL     1       6.190   2.548  42.413  1.00  0.00    -0.043 A 
BRANCH  20  21
ATOM     21  C   UNL     1       7.346   3.372  42.953  1.00  0.00     0.033 C 
ATOM     22  C   UNL     1       7.189   4.864  42.617  1.00  0.00     0.011 C 
ATOM     23  C   UNL     1       8.709   2.846  42.465  1.00  0.00     0.089 C 
ATOM     24  C   UNL     1       8.391   5.653  43.130  1.00  0.00     0.016 C 
ATOM     25  N   UNL     1       9.812   3.635  43.019  1.00  0.00    -0.316 NA
ATOM     26  C   UNL     1       9.704   5.044  42.644  1.00  0.00     0.081 C 
ATOM     27  H   UNL     1      10.696   3.261  42.674  1.00  0.00     0.122 HD
ENDBRANCH  20  21
ENDBRANCH   1  15
TORSDOF 3
ENDMDL
MODEL 9
REMARK VINA RESULT:    -9.384      5.008      8.862
REMARK INTER + INTRA:         -11.853
REMARK INTER:                 -11.096
REMARK INTRA:                  -0.757
REMARK UNBOUND:                -0.824
REMARK SMILES NC(=O)c1cccc2cn(-c3ccc([C@@H]4CCCNC4)cc3)nc12
REMARK SMILES IDX 10 1 23 2 8 3 9 4 24 5 4 6 7 7 5 8 6 9 2 10 3 11 1 12 11 15
REMARK SMILES IDX 12 16 22 17 13 18 21 19 14 20 15 21 16 22 20 23 17 24 19 25
REMARK SMILES IDX 18 26
REMARK H PARENT 1 13 1 14 19 27
ROOT
ATOM      1  N   UNL     1       3.189  -1.369  39.882  1.00  0.00    -0.240 N 
ATOM      2  N   UNL     1       3.239  -2.344  38.953  1.00  0.00    -0.167 NA
ATOM      3  C   UNL     1       2.625  -3.131  40.993  1.00  0.00     0.021 A 
ATOM      4  C   UNL     1       2.825  -1.786  41.129  1.00  0.00     0.123 A 
ATOM      5  C   UNL     1       2.890  -3.462  39.614  1.00  0.00     0.105 A 
ATOM      6  C   UNL     1       2.768  -4.789  39.160  1.00  0.00     0.067 A 
ATOM      7  C   UNL     1       2.237  -3.998  42.007  1.00  0.00     0.012 A 
ATOM      8  C   UNL     1       2.375  -5.696  40.169  1.00  0.00     0.016 A 
ATOM      9  C   UNL     1       2.123  -5.317  41.525  1.00  0.00     0.002 A 
ENDROOT
BRANCH   6  10
ATOM     10  C   UNL     1       3.018  -5.191  37.793  1.00  0.00     0.250 C 
ATOM     11  O   UNL     1       4.018  -5.869  37.482  1.00  0.00    -0.269 OA
ATOM     12  N   UNL     1       2.093  -4.814  36.820  1.00  0.00    -0.366 N 
ATOM     13  H   UNL     1       1.261  -4.270  37.020  1.00  0.00     0.159 HD
ATOM     14  H   UNL     1       2.230  -5.083  35.851  1.00  0.00     0.159 HD
ENDBRANCH   6  10
BRANCH   1  15
ATOM     15  C   UNL     1       3.497  -0.067  39.535  1.00  0.00     0.065 A 
ATOM     16  C   UNL     1       3.071   0.989  40.341  1.00  0.00     0.028 A 
ATOM     17  C   UNL     1       4.236   0.192  38.379  1.00  0.00     0.028 A 
ATOM     18  C   UNL     1       3.382   2.303  39.992  1.00  0.00     0.006 A 
ATOM     19  C   UNL     1       4.547   1.506  38.030  1.00  0.00     0.006 A 
ATOM     20  C   UNL     1       4.119   2.562  38.836  1.00  0.00    -0.043 A 
BRANCH  20  21
ATOM     21  C   UNL     1       4.457   3.992  38.455  1.00  0.00     0.033 C 
ATOM     22  C   UNL     1       4.797   4.846  39.687  1.00  0.00     0.011 C 
ATOM     23  C   UNL     1       3.335   4.651  37.630  1.00  0.00     0.089 C 
ATOM     24  C   UNL     1       5.081   6.287  39.271  1.00  0.00     0.016 C 
ATOM     25  N   UNL     1       3.690   6.019  37.247  1.00  0.00    -0.316 NA
ATOM     26  C   UNL     1       3.948   6.854  38.420  1.00  0.00     0.081 C 
ATOM     27  H   UNL     1       2.926   6.425  36.706  1.00  0.00     0.122 HD
ENDBRANCH  20  21
ENDBRANCH   1  15
TORSDOF 3
ENDMDL
MODEL 10
REMARK VINA RESULT:    -9.366      5.219      8.600
REMARK INTER + INTRA:         -11.833
REMARK INTER:                 -11.040
REMARK INTRA:                  -0.793
REMARK UNBOUND:                -0.824
REMARK SMILES NC(=O)c1cccc2cn(-c3ccc([C@@H]4CCCNC4)cc3)nc12
REMARK SMILES IDX 10 1 23 2 8 3 9 4 24 5 4 6 7 7 5 8 6 9 2 10 3 11 1 12 11 15
REMARK SMILES IDX 12 16 22 17 13 18 21 19 14 20 15 21 16 22 20 23 17 24 19 25
REMARK SMILES IDX 18 26
REMARK H PARENT 1 13 1 14 19 27
ROOT
ATOM      1  N   UNL     1       3.191  -1.292  38.851  1.00  0.00    -0.240 N 
ATOM      2  N   UNL     1       1.904  -1.641  39.042  1.00  0.00    -0.167 NA
ATOM      3  C   UNL     1       3.246  -3.446  38.724  1.00  0.00     0.021 A 
ATOM      4  C   UNL     1       4.044  -2.339  38.654  1.00  0.00     0.123 A 
ATOM      5  C   UNL     1       1.901  -2.984  38.970  1.00  0.00     0.105 A 
ATOM      6  C   UNL     1       0.841  -3.901  39.092  1.00  0.00     0.067 A 
ATOM      7  C   UNL     1       3.671  -4.761  38.584  1.00  0.00     0.012 A 
ATOM      8  C   UNL     1       1.241  -5.248  38.954  1.00  0.00     0.016 A 
ATOM      9  C   UNL     1       2.591  -5.656  38.711  1.00  0.00     0.002 A 
ENDROOT
BRANCH   6  10
ATOM     10  C   UNL     1      -0.530  -3.509  39.338  1.00  0.00     0.250 C 
ATOM     11  O   UNL     1      -1.490  -4.191  38.928  1.00  0.00    -0.269 OA
ATOM     12  N   UNL     1      -0.756  -2.343  40.070  1.00  0.00    -0.366 N 
ATOM     13  H   UNL     1      -0.012  -1.756  40.432  1.00  0.00     0.159 HD
ATOM     14  H   UNL     1      -1.704  -2.038  40.269  1.00  0.00     0.159 HD
ENDBRANCH   6  10
BRANCH   1  15
ATOM     15  C   UNL     1       3.556   0.041  38.862  1.00  0.00     0.065 A 
ATOM     16  C   UNL     1       4.128   0.618  37.729  1.00  0.00     0.028 A 
ATOM     17  C   UNL     1       3.350   0.811  40.008  1.00  0.00     0.028 A 
ATOM     18  C   UNL     1       4.495   1.964  37.740  1.00  0.00     0.006 A 
ATOM     19  C   UNL     1       3.717   2.157  40.020  1.00  0.00     0.006 A 
ATOM     20  C   UNL     1       4.290   2.733  38.885  1.00  0.00    -0.043 A 
BRANCH  20  21
ATOM     21  C   UNL     1       4.691   4.197  38.899  1.00  0.00     0.033 C 
ATOM     22  C   UNL     1       5.271   4.617  40.259  1.00  0.00     0.011 C 
ATOM     23  C   UNL     1       3.525   5.120  38.497  1.00  0.00     0.089 C 
ATOM     24  C   UNL     1       5.615   6.105  40.253  1.00  0.00     0.016 C 
ATOM     25  N   UNL     1       3.938   6.526  38.488  1.00  0.00    -0.316 NA
ATOM     26  C   UNL     1       4.427   6.949  39.800  1.00  0.00     0.081 C 
ATOM     27  H   UNL     1       3.143   7.106  38.222  1.00  0.00     0.122 HD
ENDBRANCH  20  21
ENDBRANCH   1  15
TORSDOF 3
ENDMDL
MODEL 11
REMARK VINA RESULT:    -9.242      5.113      5.777
REMARK INTER + INTRA:         -11.687
REMARK INTER:                 -10.829
REMARK INTRA:                  -0.858
REMARK UNBOUND:                -0.824
REMARK SMILES NC(=O)c1cccc2cn(-c3ccc([C@@H]4CCCNC4)cc3)nc12
REMARK SMILES IDX 10 1 23 2 8 3 9 4 24 5 4 6 7 7 5 8 6 9 2 10 3 11 1 12 11 15
REMARK SMILES IDX 12 16 22 17 13 18 21 19 14 20 15 21 16 22 20 23 17 24 19 25
REMARK SMILES IDX 18 26
REMARK H PARENT 1 13 1 14 19 27
ROOT
ATOM      1  N   UNL     1       3.761  -0.145  40.651  1.00  0.00    -0.240 N 
ATOM      2  N   UNL     1       3.564   0.725  39.641  1.00  0.00    -0.167 NA
ATOM      3  C   UNL     1       4.956   1.555  41.233  1.00  0.00     0.021 A 
ATOM      4  C   UNL     1       4.591   0.302  41.637  1.00  0.00     0.123 A 
ATOM      5  C   UNL     1       4.298   1.802  39.973  1.00  0.00     0.105 A 
ATOM      6  C   UNL     1       4.480   3.024  39.298  1.00  0.00     0.067 A 
ATOM      7  C   UNL     1       5.804   2.412  41.921  1.00  0.00     0.012 A 
ATOM      8  C   UNL     1       5.338   3.919  39.974  1.00  0.00     0.016 A 
ATOM      9  C   UNL     1       5.968   3.626  41.224  1.00  0.00     0.002 A 
ENDROOT
BRANCH   6  10
ATOM     10  C   UNL     1       3.853   3.338  38.033  1.00  0.00     0.250 C 
ATOM     11  O   UNL     1       3.334   4.452  37.817  1.00  0.00    -0.269 OA
ATOM     12  N   UNL     1       3.857   2.360  37.038  1.00  0.00    -0.366 N 
ATOM     13  H   UNL     1       4.270   1.442  37.159  1.00  0.00     0.159 HD
ATOM     14  H   UNL     1       3.433   2.545  36.135  1.00  0.00     0.159 HD
ENDBRANCH   6  10
BRANCH   1  15
ATOM     15  C   UNL     1       3.140  -1.381  40.631  1.00  0.00     0.065 A 
ATOM     16  C   UNL     1       2.484  -1.813  39.478  1.00  0.00     0.028 A 
ATOM     17  C   UNL     1       3.172  -2.196  41.763  1.00  0.00     0.028 A 
ATOM     18  C   UNL     1       1.859  -3.060  39.458  1.00  0.00     0.006 A 
ATOM     19  C   UNL     1       2.546  -3.442  41.743  1.00  0.00     0.006 A 
ATOM     20  C   UNL     1       1.889  -3.874  40.590  1.00  0.00    -0.043 A 
BRANCH  20  21
ATOM     21  C   UNL     1       1.207  -5.230  40.569  1.00  0.00     0.033 C 
ATOM     22  C   UNL     1       1.936  -6.249  41.459  1.00  0.00     0.011 C 
ATOM     23  C   UNL     1       1.047  -5.775  39.137  1.00  0.00     0.089 C 
ATOM     24  C   UNL     1       1.254  -7.612  41.375  1.00  0.00     0.016 C 
ATOM     25  N   UNL     1       0.362  -7.070  39.135  1.00  0.00    -0.316 NA
ATOM     26  C   UNL     1       1.090  -8.063  39.925  1.00  0.00     0.081 C 
ATOM     27  H   UNL     1       0.276  -7.402  38.174  1.00  0.00     0.122 HD
ENDBRANCH  20  21
ENDBRANCH   1  15
TORSDOF 3
ENDMDL
MODEL 12
REMARK VINA RESULT:    -9.184      3.860      5.067
REMARK INTER + INTRA:         -11.620
REMARK INTER:                 -10.788
REMARK INTRA:                  -0.832
REMARK UNBOUND:                -0.824
REMARK SMILES NC(=O)c1cccc2cn(-c3ccc([C@@H]4CCCNC4)cc3)nc12
REMARK SMILES IDX 10 1 23 2 8 3 9 4 24 5 4 6 7 7 5 8 6 9 2 10 3 11 1 12 11 15
REMARK SMILES IDX 12 16 22 17 13 18 21 19 14 20 15 21 16 22 20 23 17 24 19 25
REMARK SMILES IDX 18 26
REMARK H PARENT 1 13 1 14 19 27
ROOT
ATOM      1  N   UNL     1       4.920   2.338  38.693  1.00  0.00    -0.240 N 
ATOM      2  N   UNL     1       5.656   2.774  39.735  1.00  0.00    -0.167 NA
ATOM      3  C   UNL     1       4.371   4.420  38.839  1.00  0.00     0.021 A 
ATOM      4  C   UNL     1       4.128   3.286  38.115  1.00  0.00     0.123 A 
ATOM      5  C   UNL     1       5.337   4.075  39.855  1.00  0.00     0.105 A 
ATOM      6  C   UNL     1       5.792   5.045  40.768  1.00  0.00     0.067 A 
ATOM      7  C   UNL     1       3.786   5.660  38.621  1.00  0.00     0.012 A 
ATOM      8  C   UNL     1       5.216   6.319  40.571  1.00  0.00     0.016 A 
ATOM      9  C   UNL     1       4.260   6.610  39.548  1.00  0.00     0.002 A 
ENDROOT
BRANCH   6  10
ATOM     10  C   UNL     1       6.757   4.769  41.810  1.00  0.00     0.250 C 
ATOM     11  O   UNL     1       7.666   5.575  42.091  1.00  0.00    -0.269 OA
ATOM     12  N   UNL     1       6.635   3.572  42.516  1.00  0.00    -0.366 N 
ATOM     13  H   UNL     1       5.912   2.886  42.332  1.00  0.00     0.159 HD
ATOM     14  H   UNL     1       7.289   3.346  43.258  1.00  0.00     0.159 HD
ENDBRANCH   6  10
BRANCH   1  15
ATOM     15  C   UNL     1       5.008   1.019  38.289  1.00  0.00     0.065 A 
ATOM     16  C   UNL     1       4.040   0.484  37.439  1.00  0.00     0.028 A 
ATOM     17  C   UNL     1       6.066   0.222  38.730  1.00  0.00     0.028 A 
ATOM     18  C   UNL     1       4.129  -0.847  37.030  1.00  0.00     0.006 A 
ATOM     19  C   UNL     1       6.155  -1.108  38.321  1.00  0.00     0.006 A 
ATOM     20  C   UNL     1       5.186  -1.643  37.471  1.00  0.00    -0.043 A 
BRANCH  20  21
ATOM     21  C   UNL     1       5.282  -3.092  37.028  1.00  0.00     0.033 C 
ATOM     22  C   UNL     1       4.745  -4.053  38.101  1.00  0.00     0.011 C 
ATOM     23  C   UNL     1       6.717  -3.478  36.622  1.00  0.00     0.089 C 
ATOM     24  C   UNL     1       4.903  -5.501  37.643  1.00  0.00     0.016 C 
ATOM     25  N   UNL     1       6.784  -4.870  36.170  1.00  0.00    -0.316 NA
ATOM     26  C   UNL     1       6.338  -5.794  37.213  1.00  0.00     0.081 C 
ATOM     27  H   UNL     1       7.746  -5.092  35.912  1.00  0.00     0.122 HD
ENDBRANCH  20  21
ENDBRANCH   1  15
TORSDOF 3
ENDMDL
MODEL 13
REMARK VINA RESULT:    -8.973      3.702      4.852
REMARK INTER + INTRA:         -11.372
REMARK INTER:                 -10.874
REMARK INTRA:                  -0.497
REMARK UNBOUND:                -0.824
REMARK SMILES NC(=O)c1cccc2cn(-c3ccc([C@@H]4CCCNC4)cc3)nc12
REMARK SMILES IDX 10 1 23 2 8 3 9 4 24 5 4 6 7 7 5 8 6 9 2 10 3 11 1 12 11 15
REMARK SMILES IDX 12 16 22 17 13 18 21 19 14 20 15 21 16 22 20 23 17 24 19 25
REMARK SMILES IDX 18 26
REMARK H PARENT 1 13 1 14 19 27
ROOT
ATOM      1  N   UNL     1       4.709   2.018  38.317  1.00  0.00    -0.240 N 
ATOM      2  N   UNL     1       5.317   2.807  39.224  1.00  0.00    -0.167 NA
ATOM      3  C   UNL     1       3.825   3.953  37.952  1.00  0.00     0.021 A 
ATOM      4  C   UNL     1       3.800   2.655  37.523  1.00  0.00     0.123 A 
ATOM      5  C   UNL     1       4.787   4.027  39.024  1.00  0.00     0.105 A 
ATOM      6  C   UNL     1       5.040   5.248  39.676  1.00  0.00     0.067 A 
ATOM      7  C   UNL     1       3.057   4.990  37.437  1.00  0.00     0.012 A 
ATOM      8  C   UNL     1       4.275   6.324  39.174  1.00  0.00     0.016 A 
ATOM      9  C   UNL     1       3.330   6.199  38.107  1.00  0.00     0.002 A 
ENDROOT
BRANCH   6  10
ATOM     10  C   UNL     1       5.990   5.395  40.757  1.00  0.00     0.250 C 
ATOM     11  O   UNL     1       6.082   4.548  41.668  1.00  0.00    -0.269 OA
ATOM     12  N   UNL     1       6.825   6.512  40.748  1.00  0.00    -0.366 N 
ATOM     13  H   UNL     1       6.796   7.227  40.029  1.00  0.00     0.159 HD
ATOM     14  H   UNL     1       7.509   6.647  41.486  1.00  0.00     0.159 HD
ENDBRANCH   6  10
BRANCH   1  15
ATOM     15  C   UNL     1       5.026   0.674  38.245  1.00  0.00     0.065 A 
ATOM     16  C   UNL     1       4.446  -0.128  37.263  1.00  0.00     0.028 A 
ATOM     17  C   UNL     1       5.928   0.121  39.155  1.00  0.00     0.028 A 
ATOM     18  C   UNL     1       4.766  -1.483  37.190  1.00  0.00     0.006 A 
ATOM     19  C   UNL     1       6.248  -1.235  39.082  1.00  0.00     0.006 A 
ATOM     20  C   UNL     1       5.667  -2.037  38.099  1.00  0.00    -0.043 A 
BRANCH  20  21
ATOM     21  C   UNL     1       6.015  -3.513  38.021  1.00  0.00     0.033 C 
ATOM     22  C   UNL     1       7.277  -3.757  37.179  1.00  0.00     0.011 C 
ATOM     23  C   UNL     1       4.839  -4.357  37.496  1.00  0.00     0.089 C 
ATOM     24  C   UNL     1       7.568  -5.253  37.080  1.00  0.00     0.016 C 
ATOM     25  N   UNL     1       5.183  -5.781  37.455  1.00  0.00    -0.316 NA
ATOM     26  C   UNL     1       6.343  -6.027  36.598  1.00  0.00     0.081 C 
ATOM     27  H   UNL     1       4.385  -6.308  37.101  1.00  0.00     0.122 HD
ENDBRANCH  20  21
ENDBRANCH   1  15
TORSDOF 3
ENDMDL
MODEL 14
REMARK VINA RESULT:    -8.957      5.611      6.677
REMARK INTER + INTRA:         -11.352
REMARK INTER:                 -10.527
REMARK INTRA:                  -0.825
REMARK UNBOUND:                -0.824
REMARK SMILES NC(=O)c1cccc2cn(-c3ccc([C@@H]4CCCNC4)cc3)nc12
REMARK SMILES IDX 10 1 23 2 8 3 9 4 24 5 4 6 7 7 5 8 6 9 2 10 3 11 1 12 11 15
REMARK SMILES IDX 12 16 22 17 13 18 21 19 14 20 15 21 16 22 20 23 17 24 19 25
REMARK SMILES IDX 18 26
REMARK H PARENT 1 13 1 14 19 27
ROOT
ATOM      1  N   UNL     1       3.794  -0.329  40.691  1.00  0.00    -0.240 N 
ATOM      2  N   UNL     1       4.580   0.005  41.733  1.00  0.00    -0.167 NA
ATOM      3  C   UNL     1       4.481   1.650  40.168  1.00  0.00     0.021 A 
ATOM      4  C   UNL     1       3.697   0.624  39.719  1.00  0.00     0.123 A 
ATOM      5  C   UNL     1       5.027   1.240  41.439  1.00  0.00     0.105 A 
ATOM      6  C   UNL     1       5.884   2.093  42.159  1.00  0.00     0.067 A 
ATOM      7  C   UNL     1       4.695   2.853  39.510  1.00  0.00     0.012 A 
ATOM      8  C   UNL     1       6.123   3.327  41.514  1.00  0.00     0.016 A 
ATOM      9  C   UNL     1       5.555   3.687  40.251  1.00  0.00     0.002 A 
ENDROOT
BRANCH   6  10
ATOM     10  C   UNL     1       6.467   1.747  43.437  1.00  0.00     0.250 C 
ATOM     11  O   UNL     1       6.394   2.512  44.419  1.00  0.00    -0.269 OA
ATOM     12  N   UNL     1       7.107   0.513  43.553  1.00  0.00    -0.366 N 
ATOM     13  H   UNL     1       7.189  -0.148  42.788  1.00  0.00     0.159 HD
ATOM     14  H   UNL     1       7.523   0.232  44.435  1.00  0.00     0.159 HD
ENDBRANCH   6  10
BRANCH   1  15
ATOM     15  C   UNL     1       3.162  -1.558  40.667  1.00  0.00     0.065 A 
ATOM     16  C   UNL     1       3.430  -2.460  39.637  1.00  0.00     0.028 A 
ATOM     17  C   UNL     1       2.257  -1.898  41.674  1.00  0.00     0.028 A 
ATOM     18  C   UNL     1       2.793  -3.701  39.614  1.00  0.00     0.006 A 
ATOM     19  C   UNL     1       1.621  -3.138  41.651  1.00  0.00     0.006 A 
ATOM     20  C   UNL     1       1.888  -4.040  40.620  1.00  0.00    -0.043 A 
BRANCH  20  21
ATOM     21  C   UNL     1       1.194  -5.390  40.594  1.00  0.00     0.033 C 
ATOM     22  C   UNL     1       1.946  -6.435  41.434  1.00  0.00     0.011 C 
ATOM     23  C   UNL     1       0.977  -5.901  39.157  1.00  0.00     0.089 C 
ATOM     24  C   UNL     1       1.248  -7.790  41.344  1.00  0.00     0.016 C 
ATOM     25  N   UNL     1       0.280  -7.190  39.151  1.00  0.00    -0.316 NA
ATOM     26  C   UNL     1       1.027  -8.206  39.892  1.00  0.00     0.081 C 
ATOM     27  H   UNL     1       0.156  -7.499  38.187  1.00  0.00     0.122 HD
ENDBRANCH  20  21
ENDBRANCH   1  15
TORSDOF 3
ENDMDL
MODEL 15
REMARK VINA RESULT:    -8.930      5.706      8.676
REMARK INTER + INTRA:         -11.320
REMARK INTER:                 -10.508
REMARK INTRA:                  -0.812
REMARK UNBOUND:                -0.824
REMARK SMILES NC(=O)c1cccc2cn(-c3ccc([C@@H]4CCCNC4)cc3)nc12
REMARK SMILES IDX 10 1 23 2 8 3 9 4 24 5 4 6 7 7 5 8 6 9 2 10 3 11 1 12 11 15
REMARK SMILES IDX 12 16 22 17 13 18 21 19 14 20 15 21 16 22 20 23 17 24 19 25
REMARK SMILES IDX 18 26
REMARK H PARENT 1 13 1 14 19 27
ROOT
ATOM      1  N   UNL     1       2.640  -3.199  41.964  1.00  0.00    -0.240 N 
ATOM      2  N   UNL     1       2.304  -3.624  40.730  1.00  0.00    -0.167 NA
ATOM      3  C   UNL     1       1.693  -5.101  42.344  1.00  0.00     0.021 A 
ATOM      4  C   UNL     1       2.296  -4.049  42.974  1.00  0.00     0.123 A 
ATOM      5  C   UNL     1       1.708  -4.813  40.930  1.00  0.00     0.105 A 
ATOM      6  C   UNL     1       1.153  -5.720  40.009  1.00  0.00     0.067 A 
ATOM      7  C   UNL     1       1.169  -6.226  42.968  1.00  0.00     0.012 A 
ATOM      8  C   UNL     1       0.612  -6.877  40.613  1.00  0.00     0.016 A 
ATOM      9  C   UNL     1       0.621  -7.116  42.023  1.00  0.00     0.002 A 
ENDROOT
BRANCH   6  10
ATOM     10  C   UNL     1       1.133  -5.496  38.580  1.00  0.00     0.250 C 
ATOM     11  O   UNL     1       0.068  -5.495  37.931  1.00  0.00    -0.269 OA
ATOM     12  N   UNL     1       2.349  -5.260  37.937  1.00  0.00    -0.366 N 
ATOM     13  H   UNL     1       3.241  -5.244  38.418  1.00  0.00     0.159 HD
ATOM     14  H   UNL     1       2.375  -5.092  36.937  1.00  0.00     0.159 HD
ENDBRANCH   6  10
BRANCH   1  15
ATOM     15  C   UNL     1       3.284  -1.986  42.127  1.00  0.00     0.065 A 
ATOM     16  C   UNL     1       4.678  -1.929  42.115  1.00  0.00     0.028 A 
ATOM     17  C   UNL     1       2.539  -0.819  42.302  1.00  0.00     0.028 A 
ATOM     18  C   UNL     1       5.327  -0.706  42.278  1.00  0.00     0.006 A 
ATOM     19  C   UNL     1       3.188   0.404  42.465  1.00  0.00     0.006 A 
ATOM     20  C   UNL     1       4.583   0.461  42.454  1.00  0.00    -0.043 A 
BRANCH  20  21
ATOM     21  C   UNL     1       5.289   1.793  42.634  1.00  0.00     0.033 C 
ATOM     22  C   UNL     1       5.726   2.393  41.288  1.00  0.00     0.011 C 
ATOM     23  C   UNL     1       6.487   1.687  43.596  1.00  0.00     0.089 C 
ATOM     24  C   UNL     1       6.476   3.705  41.510  1.00  0.00     0.016 C 
ATOM     25  N   UNL     1       7.138   2.986  43.779  1.00  0.00    -0.316 NA
ATOM     26  C   UNL     1       7.617   3.530  42.509  1.00  0.00     0.081 C 
ATOM     27  H   UNL     1       7.926   2.879  44.418  1.00  0.00     0.122 HD
ENDBRANCH  20  21
ENDBRANCH   1  15
TORSDOF 3
ENDMDL
MODEL 16
REMARK VINA RESULT:    -8.925      5.216      8.343
REMARK INTER + INTRA:         -11.314
REMARK INTER:                 -10.699
REMARK INTRA:                  -0.615
REMARK UNBOUND:                -0.824
REMARK SMILES NC(=O)c1cccc2cn(-c3ccc([C@@H]4CCCNC4)cc3)nc12
REMARK SMILES IDX 10 1 23 2 8 3 9 4 24 5 4 6 7 7 5 8 6 9 2 10 3 11 1 12 11 15
REMARK SMILES IDX 12 16 22 17 13 18 21 19 14 20 15 21 16 22 20 23 17 24 19 25
REMARK SMILES IDX 18 26
REMARK H PARENT 1 13 1 14 19 27
ROOT
ATOM      1  N   UNL     1       3.157  -2.811  41.308  1.00  0.00    -0.240 N 
ATOM      2  N   UNL     1       3.389  -3.356  40.098  1.00  0.00    -0.167 NA
ATOM      3  C   UNL     1       2.029  -4.650  41.377  1.00  0.00     0.021 A 
ATOM      4  C   UNL     1       2.344  -3.547  42.120  1.00  0.00     0.123 A 
ATOM      5  C   UNL     1       2.697  -4.509  40.105  1.00  0.00     0.105 A 
ATOM      6  C   UNL     1       2.564  -5.499  39.114  1.00  0.00     0.067 A 
ATOM      7  C   UNL     1       1.214  -5.697  41.787  1.00  0.00     0.012 A 
ATOM      8  C   UNL     1       1.741  -6.579  39.502  1.00  0.00     0.016 A 
ATOM      9  C   UNL     1       1.099  -6.671  40.777  1.00  0.00     0.002 A 
ENDROOT
BRANCH   6  10
ATOM     10  C   UNL     1       3.204  -5.423  37.819  1.00  0.00     0.250 C 
ATOM     11  O   UNL     1       2.934  -4.516  37.006  1.00  0.00    -0.269 OA
ATOM     12  N   UNL     1       4.157  -6.391  37.502  1.00  0.00    -0.366 N 
ATOM     13  H   UNL     1       4.418  -7.145  38.127  1.00  0.00     0.159 HD
ATOM     14  H   UNL     1       4.633  -6.368  36.605  1.00  0.00     0.159 HD
ENDBRANCH   6  10
BRANCH   1  15
ATOM     15  C   UNL     1       3.729  -1.597  41.641  1.00  0.00     0.065 A 
ATOM     16  C   UNL     1       2.953  -0.438  41.646  1.00  0.00     0.028 A 
ATOM     17  C   UNL     1       5.082  -1.532  41.976  1.00  0.00     0.028 A 
ATOM     18  C   UNL     1       3.530   0.786  41.984  1.00  0.00     0.006 A 
ATOM     19  C   UNL     1       5.659  -0.308  42.314  1.00  0.00     0.006 A 
ATOM     20  C   UNL     1       4.883   0.851  42.317  1.00  0.00    -0.043 A 
BRANCH  20  21
ATOM     21  C   UNL     1       5.512   2.184  42.683  1.00  0.00     0.033 C 
ATOM     22  C   UNL     1       6.132   2.877  41.460  1.00  0.00     0.011 C 
ATOM     23  C   UNL     1       6.550   2.043  43.813  1.00  0.00     0.089 C 
ATOM     24  C   UNL     1       6.798   4.187  41.873  1.00  0.00     0.016 C 
ATOM     25  N   UNL     1       7.125   3.341  44.172  1.00  0.00    -0.316 NA
ATOM     26  C   UNL     1       7.776   3.974  43.025  1.00  0.00     0.081 C 
ATOM     27  H   UNL     1       7.807   3.211  44.918  1.00  0.00     0.122 HD
ENDBRANCH  20  21
ENDBRANCH   1  15
TORSDOF 3
ENDMDL
MODEL 17
REMARK VINA RESULT:    -8.775      4.356      5.507
REMARK INTER + INTRA:         -11.138
REMARK INTER:                 -10.351
REMARK INTRA:                  -0.787
REMARK UNBOUND:                -0.824
REMARK SMILES NC(=O)c1cccc2cn(-c3ccc([C@@H]4CCCNC4)cc3)nc12
REMARK SMILES IDX 10 1 23 2 8 3 9 4 24 5 4 6 7 7 5 8 6 9 2 10 3 11 1 12 11 15
REMARK SMILES IDX 12 16 22 17 13 18 21 19 14 20 15 21 16 22 20 23 17 24 19 25
REMARK SMILES IDX 18 26
REMARK H PARENT 1 13 1 14 19 27
ROOT
ATOM      1  N   UNL     1       4.244   2.432  39.135  1.00  0.00    -0.240 N 
ATOM      2  N   UNL     1       5.109   2.789  40.104  1.00  0.00    -0.167 NA
ATOM      3  C   UNL     1       4.331   4.580  38.944  1.00  0.00     0.021 A 
ATOM      4  C   UNL     1       3.743   3.470  38.405  1.00  0.00     0.123 A 
ATOM      5  C   UNL     1       5.188   4.129  40.014  1.00  0.00     0.105 A 
ATOM      6  C   UNL     1       5.937   5.050  40.768  1.00  0.00     0.067 A 
ATOM      7  C   UNL     1       4.126   5.888  38.526  1.00  0.00     0.012 A 
ATOM      8  C   UNL     1       5.751   6.391  40.366  1.00  0.00     0.016 A 
ATOM      9  C   UNL     1       4.887   6.789  39.297  1.00  0.00     0.002 A 
ENDROOT
BRANCH   6  10
ATOM     10  C   UNL     1       6.815   4.668  41.852  1.00  0.00     0.250 C 
ATOM     11  O   UNL     1       7.802   5.361  42.172  1.00  0.00    -0.269 OA
ATOM     12  N   UNL     1       6.519   3.500  42.554  1.00  0.00    -0.366 N 
ATOM     13  H   UNL     1       5.727   2.904  42.340  1.00  0.00     0.159 HD
ATOM     14  H   UNL     1       7.108   3.202  43.326  1.00  0.00     0.159 HD
ENDBRANCH   6  10
BRANCH   1  15
ATOM     15  C   UNL     1       3.929   1.099  38.945  1.00  0.00     0.065 A 
ATOM     16  C   UNL     1       3.281   0.384  39.952  1.00  0.00     0.028 A 
ATOM     17  C   UNL     1       4.258   0.469  37.744  1.00  0.00     0.028 A 
ATOM     18  C   UNL     1       2.963  -0.960  39.759  1.00  0.00     0.006 A 
ATOM     19  C   UNL     1       3.939  -0.875  37.551  1.00  0.00     0.006 A 
ATOM     20  C   UNL     1       3.292  -1.590  38.559  1.00  0.00    -0.043 A 
BRANCH  20  21
ATOM     21  C   UNL     1       2.947  -3.053  38.350  1.00  0.00     0.033 C 
ATOM     22  C   UNL     1       1.563  -3.226  37.703  1.00  0.00     0.011 C 
ATOM     23  C   UNL     1       3.041  -3.862  39.657  1.00  0.00     0.089 C 
ATOM     24  C   UNL     1       1.229  -4.708  37.554  1.00  0.00     0.016 C 
ATOM     25  N   UNL     1       2.733  -5.277  39.430  1.00  0.00    -0.316 NA
ATOM     26  C   UNL     1       1.390  -5.451  38.878  1.00  0.00     0.081 C 
ATOM     27  H   UNL     1       2.802  -5.780  40.314  1.00  0.00     0.122 HD
ENDBRANCH  20  21
ENDBRANCH   1  15
TORSDOF 3
ENDMDL
MODEL 18
REMARK VINA RESULT:    -8.615      5.323      7.924
REMARK INTER + INTRA:         -10.951
REMARK INTER:                 -10.121
REMARK INTRA:                  -0.830
REMARK UNBOUND:                -0.824
REMARK SMILES NC(=O)c1cccc2cn(-c3ccc([C@@H]4CCCNC4)cc3)nc12
REMARK SMILES IDX 10 1 23 2 8 3 9 4 24 5 4 6 7 7 5 8 6 9 2 10 3 11 1 12 11 15
REMARK SMILES IDX 12 16 22 17 13 18 21 19 14 20 15 21 16 22 20 23 17 24 19 25
REMARK SMILES IDX 18 26
REMARK H PARENT 1 13 1 14 19 27
ROOT
ATOM      1  N   UNL     1       2.793  -0.956  40.891  1.00  0.00    -0.240 N 
ATOM      2  N   UNL     1       2.836  -2.162  41.490  1.00  0.00    -0.167 NA
ATOM      3  C   UNL     1       1.108  -1.990  40.026  1.00  0.00     0.021 A 
ATOM      4  C   UNL     1       1.773  -0.796  40.000  1.00  0.00     0.123 A 
ATOM      5  C   UNL     1       1.794  -2.837  40.971  1.00  0.00     0.105 A 
ATOM      6  C   UNL     1       1.340  -4.145  41.220  1.00  0.00     0.067 A 
ATOM      7  C   UNL     1      -0.016  -2.307  39.274  1.00  0.00     0.012 A 
ATOM      8  C   UNL     1       0.197  -4.498  40.470  1.00  0.00     0.016 A 
ATOM      9  C   UNL     1      -0.448  -3.620  39.543  1.00  0.00     0.002 A 
ENDROOT
BRANCH   6  10
ATOM     10  C   UNL     1       1.979  -5.048  42.153  1.00  0.00     0.250 C 
ATOM     11  O   UNL     1       2.064  -6.271  41.928  1.00  0.00    -0.269 OA
ATOM     12  N   UNL     1       2.522  -4.508  43.319  1.00  0.00    -0.366 N 
ATOM     13  H   UNL     1       2.486  -3.521  43.549  1.00  0.00     0.159 HD
ATOM     14  H   UNL     1       2.984  -5.108  43.995  1.00  0.00     0.159 HD
ENDBRANCH   6  10
BRANCH   1  15
ATOM     15  C   UNL     1       3.739   0.004  41.201  1.00  0.00     0.065 A 
ATOM     16  C   UNL     1       4.211   0.122  42.508  1.00  0.00     0.028 A 
ATOM     17  C   UNL     1       4.222   0.854  40.205  1.00  0.00     0.028 A 
ATOM     18  C   UNL     1       5.166   1.090  42.820  1.00  0.00     0.006 A 
ATOM     19  C   UNL     1       5.177   1.822  40.517  1.00  0.00     0.006 A 
ATOM     20  C   UNL     1       5.648   1.940  41.825  1.00  0.00    -0.043 A 
BRANCH  20  21
ATOM     21  C   UNL     1       6.686   2.995  42.164  1.00  0.00     0.033 C 
ATOM     22  C   UNL     1       6.875   3.141  43.683  1.00  0.00     0.011 C 
ATOM     23  C   UNL     1       6.357   4.357  41.524  1.00  0.00     0.089 C 
ATOM     24  C   UNL     1       7.887   4.243  43.988  1.00  0.00     0.016 C 
ATOM     25  N   UNL     1       7.383   5.354  41.839  1.00  0.00    -0.316 NA
ATOM     26  C   UNL     1       7.519   5.546  43.283  1.00  0.00     0.081 C 
ATOM     27  H   UNL     1       7.133   6.242  41.403  1.00  0.00     0.122 HD
ENDBRANCH  20  21
ENDBRANCH   1  15
TORSDOF 3
ENDMDL
MODEL 19
REMARK VINA RESULT:    -8.511      4.982      7.362
REMARK INTER + INTRA:         -10.828
REMARK INTER:                 -10.026
REMARK INTRA:                  -0.803
REMARK UNBOUND:                -0.824
REMARK SMILES NC(=O)c1cccc2cn(-c3ccc([C@@H]4CCCNC4)cc3)nc12
REMARK SMILES IDX 10 1 23 2 8 3 9 4 24 5 4 6 7 7 5 8 6 9 2 10 3 11 1 12 11 15
REMARK SMILES IDX 12 16 22 17 13 18 21 19 14 20 15 21 16 22 20 23 17 24 19 25
REMARK SMILES IDX 18 26
REMARK H PARENT 1 13 1 14 19 27
ROOT
ATOM      1  N   UNL     1       3.850  -1.369  39.803  1.00  0.00    -0.240 N 
ATOM      2  N   UNL     1       2.525  -1.611  39.839  1.00  0.00    -0.167 NA
ATOM      3  C   UNL     1       3.642  -3.128  38.570  1.00  0.00     0.021 A 
ATOM      4  C   UNL     1       4.572  -2.252  39.054  1.00  0.00     0.123 A 
ATOM      5  C   UNL     1       2.359  -2.707  39.077  1.00  0.00     0.105 A 
ATOM      6  C   UNL     1       1.191  -3.420  38.748  1.00  0.00     0.067 A 
ATOM      7  C   UNL     1       3.906  -4.216  37.747  1.00  0.00     0.012 A 
ATOM      8  C   UNL     1       1.426  -4.532  37.910  1.00  0.00     0.016 A 
ATOM      9  C   UNL     1       2.721  -4.910  37.434  1.00  0.00     0.002 A 
ENDROOT
BRANCH   6  10
ATOM     10  C   UNL     1      -0.127  -3.054  39.220  1.00  0.00     0.250 C 
ATOM     11  O   UNL     1      -1.158  -3.369  38.593  1.00  0.00    -0.269 OA
ATOM     12  N   UNL     1      -0.221  -2.348  40.419  1.00  0.00    -0.366 N 
ATOM     13  H   UNL     1       0.584  -2.073  40.971  1.00  0.00     0.159 HD
ATOM     14  H   UNL     1      -1.128  -2.079  40.786  1.00  0.00     0.159 HD
ENDBRANCH   6  10
BRANCH   1  15
ATOM     15  C   UNL     1       4.376  -0.292  40.493  1.00  0.00     0.065 A 
ATOM     16  C   UNL     1       4.369  -0.287  41.888  1.00  0.00     0.028 A 
ATOM     17  C   UNL     1       4.915   0.788  39.793  1.00  0.00     0.028 A 
ATOM     18  C   UNL     1       4.901   0.799  42.583  1.00  0.00     0.006 A 
ATOM     19  C   UNL     1       5.446   1.874  40.489  1.00  0.00     0.006 A 
ATOM     20  C   UNL     1       5.439   1.880  41.884  1.00  0.00    -0.043 A 
BRANCH  20  21
ATOM     21  C   UNL     1       6.015   3.063  42.641  1.00  0.00     0.033 C 
ATOM     22  C   UNL     1       6.764   4.027  41.707  1.00  0.00     0.011 C 
ATOM     23  C   UNL     1       6.923   2.619  43.804  1.00  0.00     0.089 C 
ATOM     24  C   UNL     1       7.372   5.176  42.507  1.00  0.00     0.016 C 
ATOM     25  N   UNL     1       7.447   3.772  44.539  1.00  0.00    -0.316 NA
ATOM     26  C   UNL     1       8.218   4.658  43.668  1.00  0.00     0.081 C 
ATOM     27  H   UNL     1       8.044   3.443  45.298  1.00  0.00     0.122 HD
ENDBRANCH  20  21
ENDBRANCH   1  15
TORSDOF 3
ENDMDL
MODEL 20
REMARK VINA RESULT:    -8.472      5.667      7.146
REMARK INTER + INTRA:         -10.782
REMARK INTER:                  -9.966
REMARK INTRA:                  -0.816
REMARK UNBOUND:                -0.824
REMARK SMILES NC(=O)c1cccc2cn(-c3ccc([C@@H]4CCCNC4)cc3)nc12
REMARK SMILES IDX 10 1 23 2 8 3 9 4 24 5 4 6 7 7 5 8 6 9 2 10 3 11 1 12 11 15
REMARK SMILES IDX 12 16 22 17 13 18 21 19 14 20 15 21 16 22 20 23 17 24 19 25
REMARK SMILES IDX 18 26
REMARK H PARENT 1 13 1 14 19 27
ROOT
ATOM      1  N   UNL     1       4.819  -1.086  41.645  1.00  0.00    -0.240 N 
ATOM      2  N   UNL     1       6.087  -1.141  41.194  1.00  0.00    -0.167 NA
ATOM      3  C   UNL     1       5.643   0.807  42.275  1.00  0.00     0.021 A 
ATOM      4  C   UNL     1       4.496   0.065  42.303  1.00  0.00     0.123 A 
ATOM      5  C   UNL     1       6.634   0.029  41.571  1.00  0.00     0.105 A 
ATOM      6  C   UNL     1       7.933   0.533  41.377  1.00  0.00     0.067 A 
ATOM      7  C   UNL     1       5.803   2.071  42.827  1.00  0.00     0.012 A 
ATOM      8  C   UNL     1       8.128   1.819  41.928  1.00  0.00     0.016 A 
ATOM      9  C   UNL     1       7.111   2.550  42.618  1.00  0.00     0.002 A 
ENDROOT
BRANCH   6  10
ATOM     10  C   UNL     1       8.975  -0.192  40.682  1.00  0.00     0.250 C 
ATOM     11  O   UNL     1      10.023  -0.546  41.259  1.00  0.00    -0.269 OA
ATOM     12  N   UNL     1       8.770  -0.506  39.339  1.00  0.00    -0.366 N 
ATOM     13  H   UNL     1       7.935  -0.248  38.825  1.00  0.00     0.159 HD
ATOM     14  H   UNL     1       9.475  -1.019  38.819  1.00  0.00     0.159 HD
ENDBRANCH   6  10
BRANCH   1  15
ATOM     15  C   UNL     1       3.959  -2.145  41.423  1.00  0.00     0.065 A 
ATOM     16  C   UNL     1       3.872  -2.720  40.155  1.00  0.00     0.028 A 
ATOM     17  C   UNL     1       3.179  -2.642  42.469  1.00  0.00     0.028 A 
ATOM     18  C   UNL     1       3.005  -3.790  39.933  1.00  0.00     0.006 A 
ATOM     19  C   UNL     1       2.313  -3.711  42.246  1.00  0.00     0.006 A 
ATOM     20  C   UNL     1       2.225  -4.285  40.977  1.00  0.00    -0.043 A 
BRANCH  20  21
ATOM     21  C   UNL     1       1.280  -5.448  40.735  1.00  0.00     0.033 C 
ATOM     22  C   UNL     1       1.554  -6.616  41.697  1.00  0.00     0.011 C 
ATOM     23  C   UNL     1       1.319  -5.929  39.272  1.00  0.00     0.089 C 
ATOM     24  C   UNL     1       0.621  -7.785  41.392  1.00  0.00     0.016 C 
ATOM     25  N   UNL     1       0.380  -7.033  39.051  1.00  0.00    -0.316 NA
ATOM     26  C   UNL     1       0.679  -8.173  39.917  1.00  0.00     0.081 C 
ATOM     27  H   UNL     1       0.434  -7.327  38.075  1.00  0.00     0.122 HD
ENDBRANCH  20  21
ENDBRANCH   1  15
TORSDOF 3
ENDMDL
