MODEL 1
REMARK VINA RESULT:    -6.714      0.000      0.000
REMARK INTER + INTRA:         -10.340
REMARK INTER:                  -9.068
REMARK INTRA:                  -1.272
REMARK UNBOUND:                -1.272
REMARK SMILES COC(=O)C1=C(C)NC(C)=C(C(=O)OC(C)C)[C@@H]1c1cccc2nonc12
REMARK SMILES IDX 7 1 6 2 5 3 18 4 11 5 9 6 8 7 10 8 3 10 4 11 2 12 1 13 19 14
REMARK SMILES IDX 20 15 27 16 21 17 26 18 23 19 22 20 25 21 24 22 12 23 13 24
REMARK SMILES IDX 14 25 15 26 16 27 17 28
REMARK H PARENT 8 9
ROOT
ATOM      1  C   UNL     1     151.157 165.490 153.354  1.00  0.00     0.065 C 
ATOM      2  C   UNL     1     150.777 166.939 153.529  1.00  0.00     0.023 C 
ATOM      3  C   UNL     1     151.099 167.929 152.666  1.00  0.00     0.068 C 
ATOM      4  C   UNL     1     150.680 169.373 152.925  1.00  0.00     0.100 C 
ATOM      5  C   UNL     1     149.958 169.561 154.254  1.00  0.00     0.068 C 
ATOM      6  C   UNL     1     149.691 168.516 155.068  1.00  0.00     0.023 C 
ATOM      7  N   UNL     1     150.078 167.241 154.689  1.00  0.00    -0.362 N 
ATOM      8  C   UNL     1     149.029 168.627 156.417  1.00  0.00     0.065 C 
ATOM      9  H   UNL     1     149.818 166.468 155.296  1.00  0.00     0.166 HD
ENDROOT
BRANCH   3  10
ATOM     10  C   UNL     1     151.844 167.652 151.418  1.00  0.00     0.336 C 
ATOM     11  O   UNL     1     153.030 167.887 151.244  1.00  0.00    -0.246 OA
BRANCH  10  12
ATOM     12  O   UNL     1     151.003 167.099 150.505  1.00  0.00    -0.466 OA
ATOM     13  C   UNL     1     151.348 167.393 149.152  1.00  0.00     0.282 C 
ENDBRANCH  10  12
ENDBRANCH   3  10
BRANCH   4  14
ATOM     14  C   UNL     1     149.858 169.932 151.771  1.00  0.00    -0.004 A 
ATOM     15  C   UNL     1     148.453 169.723 151.701  1.00  0.00     0.007 A 
ATOM     16  C   UNL     1     150.364 170.675 150.674  1.00  0.00     0.139 A 
ATOM     17  C   UNL     1     147.627 170.208 150.652  1.00  0.00     0.003 A 
ATOM     18  N   UNL     1     151.622 171.048 150.402  1.00  0.00    -0.049 NA
ATOM     19  C   UNL     1     149.512 171.170 149.598  1.00  0.00     0.135 A 
ATOM     20  C   UNL     1     148.123 170.948 149.566  1.00  0.00     0.034 A 
ATOM     21  O   UNL     1     151.566 171.751 149.214  1.00  0.00    -0.243 OA
ATOM     22  N   UNL     1     150.277 171.824 148.717  1.00  0.00    -0.050 NA
ENDBRANCH   4  14
BRANCH   5  23
ATOM     23  C   UNL     1     149.615 170.961 154.579  1.00  0.00     0.337 C 
ATOM     24  O   UNL     1     148.465 171.361 154.677  1.00  0.00    -0.246 OA
BRANCH  23  25
ATOM     25  O   UNL     1     150.742 171.668 154.837  1.00  0.00    -0.460 OA
BRANCH  25  26
ATOM     26  C   UNL     1     151.101 171.804 156.223  1.00  0.00     0.170 C 
ATOM     27  C   UNL     1     152.622 171.769 156.297  1.00  0.00     0.052 C 
ATOM     28  C   UNL     1     150.561 173.124 156.761  1.00  0.00     0.052 C 
ENDBRANCH  25  26
ENDBRANCH  23  25
ENDBRANCH   5  23
TORSDOF 6
ENDMDL
MODEL 2
REMARK VINA RESULT:    -6.686      6.730     10.164
REMARK INTER + INTRA:         -10.303
REMARK INTER:                  -8.655
REMARK INTRA:                  -1.648
REMARK UNBOUND:                -1.272
REMARK SMILES COC(=O)C1=C(C)NC(C)=C(C(=O)OC(C)C)[C@@H]1c1cccc2nonc12
REMARK SMILES IDX 7 1 6 2 5 3 18 4 11 5 9 6 8 7 10 8 3 10 4 11 2 12 1 13 19 14
REMARK SMILES IDX 20 15 27 16 21 17 26 18 23 19 22 20 25 21 24 22 12 23 13 24
REMARK SMILES IDX 14 25 15 26 16 27 17 28
REMARK H PARENT 8 9
ROOT
ATOM      1  C   UNL     1     153.019 160.334 143.961  1.00  0.00     0.065 C 
ATOM      2  C   UNL     1     151.958 160.659 144.982  1.00  0.00     0.023 C 
ATOM      3  C   UNL     1     152.189 161.283 146.160  1.00  0.00     0.068 C 
ATOM      4  C   UNL     1     151.056 161.567 147.141  1.00  0.00     0.100 C 
ATOM      5  C   UNL     1     149.712 161.015 146.684  1.00  0.00     0.068 C 
ATOM      6  C   UNL     1     149.571 160.387 145.496  1.00  0.00     0.023 C 
ATOM      7  N   UNL     1     150.673 160.241 144.668  1.00  0.00    -0.362 N 
ATOM      8  C   UNL     1     148.290 159.770 144.997  1.00  0.00     0.065 C 
ATOM      9  H   UNL     1     150.528 159.811 143.758  1.00  0.00     0.166 HD
ENDROOT
BRANCH   3  10
ATOM     10  C   UNL     1     153.544 161.744 146.535  1.00  0.00     0.336 C 
ATOM     11  O   UNL     1     154.138 162.673 146.009  1.00  0.00    -0.246 OA
BRANCH  10  12
ATOM     12  O   UNL     1     154.018 160.973 147.548  1.00  0.00    -0.466 OA
ATOM     13  C   UNL     1     154.746 161.703 148.536  1.00  0.00     0.282 C 
ENDBRANCH  10  12
ENDBRANCH   3  10
BRANCH   4  14
ATOM     14  C   UNL     1     150.957 163.052 147.466  1.00  0.00    -0.004 A 
ATOM     15  C   UNL     1     150.540 163.993 146.483  1.00  0.00     0.007 A 
ATOM     16  C   UNL     1     151.267 163.653 148.712  1.00  0.00     0.139 A 
ATOM     17  C   UNL     1     150.433 165.389 146.713  1.00  0.00     0.003 A 
ATOM     18  N   UNL     1     151.698 163.089 149.849  1.00  0.00    -0.049 NA
ATOM     19  C   UNL     1     151.156 165.089 148.943  1.00  0.00     0.135 A 
ATOM     20  C   UNL     1     150.734 165.988 147.947  1.00  0.00     0.034 A 
ATOM     21  O   UNL     1     151.845 164.119 150.757  1.00  0.00    -0.243 OA
ATOM     22  N   UNL     1     151.519 165.345 150.205  1.00  0.00    -0.050 NA
ENDBRANCH   4  14
BRANCH   5  23
ATOM     23  C   UNL     1     148.609 161.195 147.650  1.00  0.00     0.337 C 
ATOM     24  O   UNL     1     147.719 162.019 147.503  1.00  0.00    -0.246 OA
BRANCH  23  25
ATOM     25  O   UNL     1     148.692 160.263 148.630  1.00  0.00    -0.460 OA
BRANCH  25  26
ATOM     26  C   UNL     1     147.907 160.510 149.810  1.00  0.00     0.170 C 
ATOM     27  C   UNL     1     147.517 159.153 150.381  1.00  0.00     0.052 C 
ATOM     28  C   UNL     1     148.733 161.305 150.814  1.00  0.00     0.052 C 
ENDBRANCH  25  26
ENDBRANCH  23  25
ENDBRANCH   5  23
TORSDOF 6
ENDMDL
MODEL 3
REMARK VINA RESULT:    -6.632      9.905     12.960
REMARK INTER + INTRA:         -10.231
REMARK INTER:                  -8.722
REMARK INTRA:                  -1.508
REMARK UNBOUND:                -1.272
REMARK SMILES COC(=O)C1=C(C)NC(C)=C(C(=O)OC(C)C)[C@@H]1c1cccc2nonc12
REMARK SMILES IDX 7 1 6 2 5 3 18 4 11 5 9 6 8 7 10 8 3 10 4 11 2 12 1 13 19 14
REMARK SMILES IDX 20 15 27 16 21 17 26 18 23 19 22 20 25 21 24 22 12 23 13 24
REMARK SMILES IDX 14 25 15 26 16 27 17 28
REMARK H PARENT 8 9
ROOT
ATOM      1  C   UNL     1     153.154 153.771 152.762  1.00  0.00     0.065 C 
ATOM      2  C   UNL     1     152.526 154.934 152.037  1.00  0.00     0.023 C 
ATOM      3  C   UNL     1     153.154 156.099 151.762  1.00  0.00     0.068 C 
ATOM      4  C   UNL     1     152.440 157.231 151.030  1.00  0.00     0.100 C 
ATOM      5  C   UNL     1     150.977 156.926 150.733  1.00  0.00     0.068 C 
ATOM      6  C   UNL     1     150.421 155.738 151.059  1.00  0.00     0.023 C 
ATOM      7  N   UNL     1     151.197 154.770 151.675  1.00  0.00    -0.362 N 
ATOM      8  C   UNL     1     148.972 155.381 150.846  1.00  0.00     0.065 C 
ATOM      9  H   UNL     1     150.766 153.867 151.861  1.00  0.00     0.166 HD
ENDROOT
BRANCH   3  10
ATOM     10  C   UNL     1     154.570 156.317 152.132  1.00  0.00     0.336 C 
ATOM     11  O   UNL     1     155.514 155.680 151.692  1.00  0.00    -0.246 OA
BRANCH  10  12
ATOM     12  O   UNL     1     154.650 157.331 153.033  1.00  0.00    -0.466 OA
ATOM     13  C   UNL     1     155.667 158.287 152.737  1.00  0.00     0.282 C 
ENDBRANCH  10  12
ENDBRANCH   3  10
BRANCH   4  14
ATOM     14  C   UNL     1     153.184 157.634 149.763  1.00  0.00    -0.004 A 
ATOM     15  C   UNL     1     153.364 156.714 148.693  1.00  0.00     0.007 A 
ATOM     16  C   UNL     1     153.771 158.900 149.511  1.00  0.00     0.139 A 
ATOM     17  C   UNL     1     154.052 157.018 147.489  1.00  0.00     0.003 A 
ATOM     18  N   UNL     1     153.811 159.992 150.286  1.00  0.00    -0.049 NA
ATOM     19  C   UNL     1     154.478 159.207 148.273  1.00  0.00     0.135 A 
ATOM     20  C   UNL     1     154.631 158.272 147.233  1.00  0.00     0.034 A 
ATOM     21  O   UNL     1     154.504 160.947 149.567  1.00  0.00    -0.243 OA
ATOM     22  N   UNL     1     154.918 160.469 148.337  1.00  0.00    -0.050 NA
ENDBRANCH   4  14
BRANCH   5  23
ATOM     23  C   UNL     1     150.230 158.035 150.103  1.00  0.00     0.337 C 
ATOM     24  O   UNL     1     150.066 158.127 148.896  1.00  0.00    -0.246 OA
BRANCH  23  25
ATOM     25  O   UNL     1     149.696 158.837 151.055  1.00  0.00    -0.460 OA
BRANCH  25  26
ATOM     26  C   UNL     1     148.564 159.629 150.655  1.00  0.00     0.170 C 
ATOM     27  C   UNL     1     147.319 158.783 150.890  1.00  0.00     0.052 C 
ATOM     28  C   UNL     1     148.518 160.906 151.487  1.00  0.00     0.052 C 
ENDBRANCH  25  26
ENDBRANCH  23  25
ENDBRANCH   5  23
TORSDOF 6
ENDMDL
MODEL 4
REMARK VINA RESULT:    -6.604      6.614     10.098
REMARK INTER + INTRA:         -10.192
REMARK INTER:                  -8.774
REMARK INTRA:                  -1.418
REMARK UNBOUND:                -1.272
REMARK SMILES COC(=O)C1=C(C)NC(C)=C(C(=O)OC(C)C)[C@@H]1c1cccc2nonc12
REMARK SMILES IDX 7 1 6 2 5 3 18 4 11 5 9 6 8 7 10 8 3 10 4 11 2 12 1 13 19 14
REMARK SMILES IDX 20 15 27 16 21 17 26 18 23 19 22 20 25 21 24 22 12 23 13 24
REMARK SMILES IDX 14 25 15 26 16 27 17 28
REMARK H PARENT 8 9
ROOT
ATOM      1  C   UNL     1     151.699 160.169 152.347  1.00  0.00     0.065 C 
ATOM      2  C   UNL     1     152.003 160.581 150.929  1.00  0.00     0.023 C 
ATOM      3  C   UNL     1     151.086 161.036 150.046  1.00  0.00     0.068 C 
ATOM      4  C   UNL     1     151.478 161.425 148.624  1.00  0.00     0.100 C 
ATOM      5  C   UNL     1     152.949 161.170 148.316  1.00  0.00     0.068 C 
ATOM      6  C   UNL     1     153.797 160.694 149.254  1.00  0.00     0.023 C 
ATOM      7  N   UNL     1     153.323 160.433 150.530  1.00  0.00    -0.362 N 
ATOM      8  C   UNL     1     155.248 160.369 149.013  1.00  0.00     0.065 C 
ATOM      9  H   UNL     1     153.995 160.125 151.229  1.00  0.00     0.166 HD
ENDROOT
BRANCH   3  10
ATOM     10  C   UNL     1     149.666 161.208 150.429  1.00  0.00     0.336 C 
ATOM     11  O   UNL     1     149.252 162.036 151.225  1.00  0.00    -0.246 OA
BRANCH  10  12
ATOM     12  O   UNL     1     148.906 160.303 149.759  1.00  0.00    -0.466 OA
ATOM     13  C   UNL     1     147.774 160.874 149.103  1.00  0.00     0.282 C 
ENDBRANCH  10  12
ENDBRANCH   3  10
BRANCH   4  14
ATOM     14  C   UNL     1     151.094 162.865 148.311  1.00  0.00    -0.004 A 
ATOM     15  C   UNL     1     150.231 163.176 147.224  1.00  0.00     0.007 A 
ATOM     16  C   UNL     1     151.537 164.014 149.014  1.00  0.00     0.139 A 
ATOM     17  C   UNL     1     149.838 164.494 146.871  1.00  0.00     0.003 A 
ATOM     18  N   UNL     1     152.357 164.106 150.070  1.00  0.00    -0.049 NA
ATOM     19  C   UNL     1     151.131 165.366 148.647  1.00  0.00     0.135 A 
ATOM     20  C   UNL     1     150.270 165.634 147.568  1.00  0.00     0.034 A 
ATOM     21  O   UNL     1     152.458 165.453 150.361  1.00  0.00    -0.243 OA
ATOM     22  N   UNL     1     151.713 166.228 149.489  1.00  0.00    -0.050 NA
ENDBRANCH   4  14
BRANCH   5  23
ATOM     23  C   UNL     1     153.346 161.452 146.921  1.00  0.00     0.337 C 
ATOM     24  O   UNL     1     154.000 162.432 146.598  1.00  0.00    -0.246 OA
BRANCH  23  25
ATOM     25  O   UNL     1     152.966 160.432 146.114  1.00  0.00    -0.460 OA
BRANCH  25  26
ATOM     26  C   UNL     1     153.565 160.400 144.807  1.00  0.00     0.170 C 
ATOM     27  C   UNL     1     154.606 159.287 144.818  1.00  0.00     0.052 C 
ATOM     28  C   UNL     1     152.490 160.129 143.761  1.00  0.00     0.052 C 
ENDBRANCH  25  26
ENDBRANCH  23  25
ENDBRANCH   5  23
TORSDOF 6
ENDMDL
MODEL 5
REMARK VINA RESULT:    -6.601      8.513     11.862
REMARK INTER + INTRA:         -10.188
REMARK INTER:                  -8.319
REMARK INTRA:                  -1.869
REMARK UNBOUND:                -1.272
REMARK SMILES COC(=O)C1=C(C)NC(C)=C(C(=O)OC(C)C)[C@@H]1c1cccc2nonc12
REMARK SMILES IDX 7 1 6 2 5 3 18 4 11 5 9 6 8 7 10 8 3 10 4 11 2 12 1 13 19 14
REMARK SMILES IDX 20 15 27 16 21 17 26 18 23 19 22 20 25 21 24 22 12 23 13 24
REMARK SMILES IDX 14 25 15 26 16 27 17 28
REMARK H PARENT 8 9
ROOT
ATOM      1  C   UNL     1     149.118 155.381 150.250  1.00  0.00     0.065 C 
ATOM      2  C   UNL     1     149.759 156.705 150.578  1.00  0.00     0.023 C 
ATOM      3  C   UNL     1     151.048 156.863 150.958  1.00  0.00     0.068 C 
ATOM      4  C   UNL     1     151.616 158.242 151.281  1.00  0.00     0.100 C 
ATOM      5  C   UNL     1     150.576 159.354 151.202  1.00  0.00     0.068 C 
ATOM      6  C   UNL     1     149.301 159.105 150.830  1.00  0.00     0.023 C 
ATOM      7  N   UNL     1     148.925 157.811 150.508  1.00  0.00    -0.362 N 
ATOM      8  C   UNL     1     148.205 160.139 150.778  1.00  0.00     0.065 C 
ATOM      9  H   UNL     1     147.974 157.663 150.181  1.00  0.00     0.166 HD
ENDROOT
BRANCH   3  10
ATOM     10  C   UNL     1     151.972 155.711 151.048  1.00  0.00     0.336 C 
ATOM     11  O   UNL     1     152.475 155.141 150.092  1.00  0.00    -0.246 OA
BRANCH  10  12
ATOM     12  O   UNL     1     152.168 155.391 152.354  1.00  0.00    -0.466 OA
ATOM     13  C   UNL     1     153.543 155.307 152.727  1.00  0.00     0.282 C 
ENDBRANCH  10  12
ENDBRANCH   3  10
BRANCH   4  14
ATOM     14  C   UNL     1     152.828 158.564 150.417  1.00  0.00    -0.004 A 
ATOM     15  C   UNL     1     152.722 158.637 149.001  1.00  0.00     0.007 A 
ATOM     16  C   UNL     1     154.145 158.801 150.888  1.00  0.00     0.139 A 
ATOM     17  C   UNL     1     153.810 158.924 148.135  1.00  0.00     0.003 A 
ATOM     18  N   UNL     1     154.616 158.800 152.142  1.00  0.00    -0.049 NA
ATOM     19  C   UNL     1     155.260 159.093 149.994  1.00  0.00     0.135 A 
ATOM     20  C   UNL     1     155.115 159.164 148.597  1.00  0.00     0.034 A 
ATOM     21  O   UNL     1     155.964 159.087 152.047  1.00  0.00    -0.243 OA
ATOM     22  N   UNL     1     156.362 159.262 150.733  1.00  0.00    -0.050 NA
ENDBRANCH   4  14
BRANCH   5  23
ATOM     23  C   UNL     1     151.069 160.690 151.594  1.00  0.00     0.337 C 
ATOM     24  O   UNL     1     151.441 160.959 152.727  1.00  0.00    -0.246 OA
BRANCH  23  25
ATOM     25  O   UNL     1     151.132 161.499 150.510  1.00  0.00    -0.460 OA
BRANCH  25  26
ATOM     26  C   UNL     1     152.043 162.609 150.598  1.00  0.00     0.170 C 
ATOM     27  C   UNL     1     153.171 162.341 149.608  1.00  0.00     0.052 C 
ATOM     28  C   UNL     1     151.310 163.899 150.250  1.00  0.00     0.052 C 
ENDBRANCH  25  26
ENDBRANCH  23  25
ENDBRANCH   5  23
TORSDOF 6
ENDMDL
MODEL 6
REMARK VINA RESULT:    -6.598      6.491      9.953
REMARK INTER + INTRA:         -10.184
REMARK INTER:                  -8.700
REMARK INTRA:                  -1.484
REMARK UNBOUND:                -1.272
REMARK SMILES COC(=O)C1=C(C)NC(C)=C(C(=O)OC(C)C)[C@@H]1c1cccc2nonc12
REMARK SMILES IDX 7 1 6 2 5 3 18 4 11 5 9 6 8 7 10 8 3 10 4 11 2 12 1 13 19 14
REMARK SMILES IDX 20 15 27 16 21 17 26 18 23 19 22 20 25 21 24 22 12 23 13 24
REMARK SMILES IDX 14 25 15 26 16 27 17 28
REMARK H PARENT 8 9
ROOT
ATOM      1  C   UNL     1     155.150 161.163 146.088  1.00  0.00     0.065 C 
ATOM      2  C   UNL     1     153.785 161.325 146.706  1.00  0.00     0.023 C 
ATOM      3  C   UNL     1     153.552 161.460 148.032  1.00  0.00     0.068 C 
ATOM      4  C   UNL     1     152.134 161.611 148.576  1.00  0.00     0.100 C 
ATOM      5  C   UNL     1     151.063 161.514 147.497  1.00  0.00     0.068 C 
ATOM      6  C   UNL     1     151.383 161.360 146.193  1.00  0.00     0.023 C 
ATOM      7  N   UNL     1     152.717 161.292 145.823  1.00  0.00    -0.362 N 
ATOM      8  C   UNL     1     150.383 161.205 145.076  1.00  0.00     0.065 C 
ATOM      9  H   UNL     1     152.929 161.229 144.830  1.00  0.00     0.166 HD
ENDROOT
BRANCH   3  10
ATOM     10  C   UNL     1     154.662 161.500 149.010  1.00  0.00     0.336 C 
ATOM     11  O   UNL     1     155.449 162.424 149.138  1.00  0.00    -0.246 OA
BRANCH  10  12
ATOM     12  O   UNL     1     154.664 160.350 149.734  1.00  0.00    -0.466 OA
ATOM     13  C   UNL     1     155.712 159.448 149.380  1.00  0.00     0.282 C 
ENDBRANCH  10  12
ENDBRANCH   3  10
BRANCH   4  14
ATOM     14  C   UNL     1     151.980 162.891 149.388  1.00  0.00    -0.004 A 
ATOM     15  C   UNL     1     151.737 164.140 148.751  1.00  0.00     0.007 A 
ATOM     16  C   UNL     1     152.072 162.996 150.799  1.00  0.00     0.139 A 
ATOM     17  C   UNL     1     151.590 165.371 149.443  1.00  0.00     0.003 A 
ATOM     18  N   UNL     1     152.302 162.044 151.713  1.00  0.00    -0.049 NA
ATOM     19  C   UNL     1     151.922 164.263 151.505  1.00  0.00     0.135 A 
ATOM     20  C   UNL     1     151.675 165.479 150.841  1.00  0.00     0.034 A 
ATOM     21  O   UNL     1     152.291 162.678 152.940  1.00  0.00    -0.243 OA
ATOM     22  N   UNL     1     152.064 164.038 152.816  1.00  0.00    -0.050 NA
ENDBRANCH   4  14
BRANCH   5  23
ATOM     23  C   UNL     1     149.674 161.567 147.998  1.00  0.00     0.337 C 
ATOM     24  O   UNL     1     148.864 162.405 147.632  1.00  0.00    -0.246 OA
BRANCH  23  25
ATOM     25  O   UNL     1     149.435 160.516 148.818  1.00  0.00    -0.460 OA
BRANCH  25  26
ATOM     26  C   UNL     1     148.348 160.670 149.747  1.00  0.00     0.170 C 
ATOM     27  C   UNL     1     147.820 159.275 150.055  1.00  0.00     0.052 C 
ATOM     28  C   UNL     1     148.853 161.352 151.013  1.00  0.00     0.052 C 
ENDBRANCH  25  26
ENDBRANCH  23  25
ENDBRANCH   5  23
TORSDOF 6
ENDMDL
MODEL 7
REMARK VINA RESULT:    -6.575      9.093     12.463
REMARK INTER + INTRA:         -10.153
REMARK INTER:                  -8.311
REMARK INTRA:                  -1.842
REMARK UNBOUND:                -1.272
REMARK SMILES COC(=O)C1=C(C)NC(C)=C(C(=O)OC(C)C)[C@@H]1c1cccc2nonc12
REMARK SMILES IDX 7 1 6 2 5 3 18 4 11 5 9 6 8 7 10 8 3 10 4 11 2 12 1 13 19 14
REMARK SMILES IDX 20 15 27 16 21 17 26 18 23 19 22 20 25 21 24 22 12 23 13 24
REMARK SMILES IDX 14 25 15 26 16 27 17 28
REMARK H PARENT 8 9
ROOT
ATOM      1  C   UNL     1     154.159 159.654 144.802  1.00  0.00     0.065 C 
ATOM      2  C   UNL     1     154.427 159.420 146.268  1.00  0.00     0.023 C 
ATOM      3  C   UNL     1     153.799 160.065 147.277  1.00  0.00     0.068 C 
ATOM      4  C   UNL     1     154.138 159.774 148.736  1.00  0.00     0.100 C 
ATOM      5  C   UNL     1     155.273 158.771 148.900  1.00  0.00     0.068 C 
ATOM      6  C   UNL     1     155.860 158.184 147.834  1.00  0.00     0.023 C 
ATOM      7  N   UNL     1     155.420 158.496 146.558  1.00  0.00    -0.362 N 
ATOM      8  C   UNL     1     157.019 157.225 147.912  1.00  0.00     0.065 C 
ATOM      9  H   UNL     1     155.844 158.000 145.777  1.00  0.00     0.166 HD
ENDROOT
BRANCH   3  10
ATOM     10  C   UNL     1     152.735 161.060 147.013  1.00  0.00     0.336 C 
ATOM     11  O   UNL     1     151.619 160.796 146.595  1.00  0.00    -0.246 OA
BRANCH  10  12
ATOM     12  O   UNL     1     153.198 162.303 147.307  1.00  0.00    -0.466 OA
ATOM     13  C   UNL     1     152.276 163.100 148.049  1.00  0.00     0.282 C 
ENDBRANCH  10  12
ENDBRANCH   3  10
BRANCH   4  14
ATOM     14  C   UNL     1     152.906 159.340 149.520  1.00  0.00    -0.004 A 
ATOM     15  C   UNL     1     152.192 158.160 149.173  1.00  0.00     0.007 A 
ATOM     16  C   UNL     1     152.338 160.029 150.622  1.00  0.00     0.139 A 
ATOM     17  C   UNL     1     151.034 157.701 149.853  1.00  0.00     0.003 A 
ATOM     18  N   UNL     1     152.728 161.167 151.211  1.00  0.00    -0.049 NA
ATOM     19  C   UNL     1     151.147 159.554 151.317  1.00  0.00     0.135 A 
ATOM     20  C   UNL     1     150.470 158.377 150.948  1.00  0.00     0.034 A 
ATOM     21  O   UNL     1     151.830 161.397 152.235  1.00  0.00    -0.243 OA
ATOM     22  N   UNL     1     150.858 160.414 152.300  1.00  0.00    -0.050 NA
ENDBRANCH   4  14
BRANCH   5  23
ATOM     23  C   UNL     1     155.688 158.531 150.298  1.00  0.00     0.337 C 
ATOM     24  O   UNL     1     156.226 159.381 150.990  1.00  0.00    -0.246 OA
BRANCH  23  25
ATOM     25  O   UNL     1     155.296 157.296 150.694  1.00  0.00    -0.460 OA
BRANCH  25  26
ATOM     26  C   UNL     1     155.273 157.062 152.113  1.00  0.00     0.170 C 
ATOM     27  C   UNL     1     153.841 157.288 152.581  1.00  0.00     0.052 C 
ATOM     28  C   UNL     1     155.719 155.633 152.400  1.00  0.00     0.052 C 
ENDBRANCH  25  26
ENDBRANCH  23  25
ENDBRANCH   5  23
TORSDOF 6
ENDMDL
MODEL 8
REMARK VINA RESULT:    -6.528     10.831     13.764
REMARK INTER + INTRA:         -10.090
REMARK INTER:                  -8.601
REMARK INTRA:                  -1.489
REMARK UNBOUND:                -1.272
REMARK SMILES COC(=O)C1=C(C)NC(C)=C(C(=O)OC(C)C)[C@@H]1c1cccc2nonc12
REMARK SMILES IDX 7 1 6 2 5 3 18 4 11 5 9 6 8 7 10 8 3 10 4 11 2 12 1 13 19 14
REMARK SMILES IDX 20 15 27 16 21 17 26 18 23 19 22 20 25 21 24 22 12 23 13 24
REMARK SMILES IDX 14 25 15 26 16 27 17 28
REMARK H PARENT 8 9
ROOT
ATOM      1  C   UNL     1     149.456 159.697 151.331  1.00  0.00     0.065 C 
ATOM      2  C   UNL     1     149.009 159.398 149.923  1.00  0.00     0.023 C 
ATOM      3  C   UNL     1     149.003 158.167 149.362  1.00  0.00     0.068 C 
ATOM      4  C   UNL     1     148.541 157.954 147.923  1.00  0.00     0.100 C 
ATOM      5  C   UNL     1     148.184 159.251 147.208  1.00  0.00     0.068 C 
ATOM      6  C   UNL     1     148.236 160.445 147.839  1.00  0.00     0.023 C 
ATOM      7  N   UNL     1     148.619 160.496 149.170  1.00  0.00    -0.362 N 
ATOM      8  C   UNL     1     147.948 161.773 147.188  1.00  0.00     0.065 C 
ATOM      9  H   UNL     1     148.599 161.401 149.633  1.00  0.00     0.166 HD
ENDROOT
BRANCH   3  10
ATOM     10  C   UNL     1     149.412 156.969 150.128  1.00  0.00     0.336 C 
ATOM     11  O   UNL     1     148.673 156.310 150.843  1.00  0.00    -0.246 OA
BRANCH  10  12
ATOM     12  O   UNL     1     150.730 156.725 149.911  1.00  0.00    -0.466 OA
ATOM     13  C   UNL     1     151.486 156.536 151.108  1.00  0.00     0.282 C 
ENDBRANCH  10  12
ENDBRANCH   3  10
BRANCH   4  14
ATOM     14  C   UNL     1     147.397 156.952 147.846  1.00  0.00    -0.004 A 
ATOM     15  C   UNL     1     147.551 155.712 147.165  1.00  0.00     0.007 A 
ATOM     16  C   UNL     1     146.102 157.125 148.397  1.00  0.00     0.139 A 
ATOM     17  C   UNL     1     146.527 154.736 147.048  1.00  0.00     0.003 A 
ATOM     18  N   UNL     1     145.598 158.159 149.084  1.00  0.00    -0.049 NA
ATOM     19  C   UNL     1     145.052 156.120 148.272  1.00  0.00     0.135 A 
ATOM     20  C   UNL     1     145.244 154.902 147.596  1.00  0.00     0.034 A 
ATOM     21  O   UNL     1     144.293 157.820 149.387  1.00  0.00    -0.243 OA
ATOM     22  N   UNL     1     143.954 156.574 148.887  1.00  0.00    -0.050 NA
ENDBRANCH   4  14
BRANCH   5  23
ATOM     23  C   UNL     1     147.818 159.092 145.786  1.00  0.00     0.337 C 
ATOM     24  O   UNL     1     146.699 159.328 145.354  1.00  0.00    -0.246 OA
BRANCH  23  25
ATOM     25  O   UNL     1     148.910 158.754 145.059  1.00  0.00    -0.460 OA
BRANCH  25  26
ATOM     26  C   UNL     1     149.870 159.801 144.833  1.00  0.00     0.170 C 
ATOM     27  C   UNL     1     151.229 159.133 144.666  1.00  0.00     0.052 C 
ATOM     28  C   UNL     1     149.489 160.578 143.578  1.00  0.00     0.052 C 
ENDBRANCH  25  26
ENDBRANCH  23  25
ENDBRANCH   5  23
TORSDOF 6
ENDMDL
MODEL 9
REMARK VINA RESULT:    -6.501     10.565     13.888
REMARK INTER + INTRA:         -10.054
REMARK INTER:                  -8.422
REMARK INTRA:                  -1.632
REMARK UNBOUND:                -1.272
REMARK SMILES COC(=O)C1=C(C)NC(C)=C(C(=O)OC(C)C)[C@@H]1c1cccc2nonc12
REMARK SMILES IDX 7 1 6 2 5 3 18 4 11 5 9 6 8 7 10 8 3 10 4 11 2 12 1 13 19 14
REMARK SMILES IDX 20 15 27 16 21 17 26 18 23 19 22 20 25 21 24 22 12 23 13 24
REMARK SMILES IDX 14 25 15 26 16 27 17 28
REMARK H PARENT 8 9
ROOT
ATOM      1  C   UNL     1     146.155 157.983 145.213  1.00  0.00     0.065 C 
ATOM      2  C   UNL     1     146.764 158.210 146.573  1.00  0.00     0.023 C 
ATOM      3  C   UNL     1     146.470 157.488 147.678  1.00  0.00     0.068 C 
ATOM      4  C   UNL     1     147.128 157.790 149.021  1.00  0.00     0.100 C 
ATOM      5  C   UNL     1     148.052 159.001 148.979  1.00  0.00     0.068 C 
ATOM      6  C   UNL     1     148.277 159.680 147.832  1.00  0.00     0.023 C 
ATOM      7  N   UNL     1     147.658 159.267 146.663  1.00  0.00    -0.362 N 
ATOM      8  C   UNL     1     149.134 160.914 147.720  1.00  0.00     0.065 C 
ATOM      9  H   UNL     1     147.886 159.764 145.806  1.00  0.00     0.166 HD
ENDROOT
BRANCH   3  10
ATOM     10  C   UNL     1     145.522 156.352 147.627  1.00  0.00     0.336 C 
ATOM     11  O   UNL     1     145.767 155.256 147.149  1.00  0.00    -0.246 OA
BRANCH  10  12
ATOM     12  O   UNL     1     144.343 156.725 148.192  1.00  0.00    -0.466 OA
ATOM     13  C   UNL     1     143.985 155.954 149.339  1.00  0.00     0.282 C 
ENDBRANCH  10  12
ENDBRANCH   3  10
BRANCH   4  14
ATOM     14  C   UNL     1     147.849 156.569 149.578  1.00  0.00    -0.004 A 
ATOM     15  C   UNL     1     147.437 155.966 150.798  1.00  0.00     0.007 A 
ATOM     16  C   UNL     1     148.969 155.927 148.992  1.00  0.00     0.139 A 
ATOM     17  C   UNL     1     148.066 154.833 151.379  1.00  0.00     0.003 A 
ATOM     18  N   UNL     1     149.629 156.222 147.864  1.00  0.00    -0.049 NA
ATOM     19  C   UNL     1     149.613 154.765 149.593  1.00  0.00     0.135 A 
ATOM     20  C   UNL     1     149.173 154.191 150.799  1.00  0.00     0.034 A 
ATOM     21  O   UNL     1     150.639 155.286 147.753  1.00  0.00    -0.243 OA
ATOM     22  N   UNL     1     150.635 154.395 148.812  1.00  0.00    -0.050 NA
ENDBRANCH   4  14
BRANCH   5  23
ATOM     23  C   UNL     1     148.638 159.377 150.282  1.00  0.00     0.337 C 
ATOM     24  O   UNL     1     147.964 159.640 151.266  1.00  0.00    -0.246 OA
BRANCH  23  25
ATOM     25  O   UNL     1     149.988 159.286 150.228  1.00  0.00    -0.460 OA
BRANCH  25  26
ATOM     26  C   UNL     1     150.629 158.683 151.366  1.00  0.00     0.170 C 
ATOM     27  C   UNL     1     151.599 157.636 150.832  1.00  0.00     0.052 C 
ATOM     28  C   UNL     1     151.368 159.753 152.160  1.00  0.00     0.052 C 
ENDBRANCH  25  26
ENDBRANCH  23  25
ENDBRANCH   5  23
TORSDOF 6
ENDMDL
MODEL 10
REMARK VINA RESULT:    -6.491      6.918      9.786
REMARK INTER + INTRA:         -10.040
REMARK INTER:                  -8.443
REMARK INTRA:                  -1.597
REMARK UNBOUND:                -1.272
REMARK SMILES COC(=O)C1=C(C)NC(C)=C(C(=O)OC(C)C)[C@@H]1c1cccc2nonc12
REMARK SMILES IDX 7 1 6 2 5 3 18 4 11 5 9 6 8 7 10 8 3 10 4 11 2 12 1 13 19 14
REMARK SMILES IDX 20 15 27 16 21 17 26 18 23 19 22 20 25 21 24 22 12 23 13 24
REMARK SMILES IDX 14 25 15 26 16 27 17 28
REMARK H PARENT 8 9
ROOT
ATOM      1  C   UNL     1     151.822 157.346 151.413  1.00  0.00     0.065 C 
ATOM      2  C   UNL     1     151.913 158.792 150.999  1.00  0.00     0.023 C 
ATOM      3  C   UNL     1     153.043 159.402 150.574  1.00  0.00     0.068 C 
ATOM      4  C   UNL     1     153.049 160.876 150.181  1.00  0.00     0.100 C 
ATOM      5  C   UNL     1     151.704 161.560 150.394  1.00  0.00     0.068 C 
ATOM      6  C   UNL     1     150.626 160.879 150.840  1.00  0.00     0.023 C 
ATOM      7  N   UNL     1     150.740 159.525 151.110  1.00  0.00    -0.362 N 
ATOM      8  C   UNL     1     149.280 161.493 151.124  1.00  0.00     0.065 C 
ATOM      9  H   UNL     1     149.900 159.027 151.394  1.00  0.00     0.166 HD
ENDROOT
BRANCH   3  10
ATOM     10  C   UNL     1     154.317 158.659 150.442  1.00  0.00     0.336 C 
ATOM     11  O   UNL     1     154.575 157.867 149.550  1.00  0.00    -0.246 OA
BRANCH  10  12
ATOM     12  O   UNL     1     155.143 158.998 151.466  1.00  0.00    -0.466 OA
ATOM     13  C   UNL     1     155.417 157.924 152.365  1.00  0.00     0.282 C 
ENDBRANCH  10  12
ENDBRANCH   3  10
BRANCH   4  14
ATOM     14  C   UNL     1     153.544 161.072 148.753  1.00  0.00    -0.004 A 
ATOM     15  C   UNL     1     152.727 160.732 147.639  1.00  0.00     0.007 A 
ATOM     16  C   UNL     1     154.815 161.574 148.376  1.00  0.00     0.139 A 
ATOM     17  C   UNL     1     153.126 160.881 146.285  1.00  0.00     0.003 A 
ATOM     18  N   UNL     1     155.836 161.978 149.144  1.00  0.00    -0.049 NA
ATOM     19  C   UNL     1     155.221 161.723 146.983  1.00  0.00     0.135 A 
ATOM     20  C   UNL     1     154.382 161.382 145.907  1.00  0.00     0.034 A 
ATOM     21  O   UNL     1     156.837 162.372 148.277  1.00  0.00    -0.243 OA
ATOM     22  N   UNL     1     156.466 162.213 146.954  1.00  0.00    -0.050 NA
ENDBRANCH   4  14
BRANCH   5  23
ATOM     23  C   UNL     1     151.696 163.010 150.107  1.00  0.00     0.337 C 
ATOM     24  O   UNL     1     151.083 163.501 149.171  1.00  0.00    -0.246 OA
BRANCH  23  25
ATOM     25  O   UNL     1     152.369 163.679 151.073  1.00  0.00    -0.460 OA
BRANCH  25  26
ATOM     26  C   UNL     1     151.634 164.705 151.763  1.00  0.00     0.170 C 
ATOM     27  C   UNL     1     151.513 164.267 153.218  1.00  0.00     0.052 C 
ATOM     28  C   UNL     1     152.382 166.028 151.655  1.00  0.00     0.052 C 
ENDBRANCH  25  26
ENDBRANCH  23  25
ENDBRANCH   5  23
TORSDOF 6
ENDMDL
MODEL 11
REMARK VINA RESULT:    -6.476      7.164     10.229
REMARK INTER + INTRA:         -10.019
REMARK INTER:                  -8.325
REMARK INTRA:                  -1.694
REMARK UNBOUND:                -1.272
REMARK SMILES COC(=O)C1=C(C)NC(C)=C(C(=O)OC(C)C)[C@@H]1c1cccc2nonc12
REMARK SMILES IDX 7 1 6 2 5 3 18 4 11 5 9 6 8 7 10 8 3 10 4 11 2 12 1 13 19 14
REMARK SMILES IDX 20 15 27 16 21 17 26 18 23 19 22 20 25 21 24 22 12 23 13 24
REMARK SMILES IDX 14 25 15 26 16 27 17 28
REMARK H PARENT 8 9
ROOT
ATOM      1  C   UNL     1     156.001 159.238 149.686  1.00  0.00     0.065 C 
ATOM      2  C   UNL     1     154.812 160.004 149.162  1.00  0.00     0.023 C 
ATOM      3  C   UNL     1     153.566 159.943 149.685  1.00  0.00     0.068 C 
ATOM      4  C   UNL     1     152.415 160.746 149.086  1.00  0.00     0.100 C 
ATOM      5  C   UNL     1     152.811 161.524 147.838  1.00  0.00     0.068 C 
ATOM      6  C   UNL     1     154.080 161.517 147.371  1.00  0.00     0.023 C 
ATOM      7  N   UNL     1     155.048 160.787 148.042  1.00  0.00    -0.362 N 
ATOM      8  C   UNL     1     154.537 162.217 146.117  1.00  0.00     0.065 C 
ATOM      9  H   UNL     1     156.003 160.841 147.698  1.00  0.00     0.166 HD
ENDROOT
BRANCH   3  10
ATOM     10  C   UNL     1     153.271 159.119 150.878  1.00  0.00     0.336 C 
ATOM     11  O   UNL     1     153.503 159.449 152.031  1.00  0.00    -0.246 OA
BRANCH  10  12
ATOM     12  O   UNL     1     152.705 157.947 150.488  1.00  0.00    -0.466 OA
ATOM     13  C   UNL     1     153.389 156.789 150.968  1.00  0.00     0.282 C 
ENDBRANCH  10  12
ENDBRANCH   3  10
BRANCH   4  14
ATOM     14  C   UNL     1     151.774 161.660 150.122  1.00  0.00    -0.004 A 
ATOM     15  C   UNL     1     152.500 162.736 150.703  1.00  0.00     0.007 A 
ATOM     16  C   UNL     1     150.451 161.550 150.622  1.00  0.00     0.139 A 
ATOM     17  C   UNL     1     151.969 163.622 151.677  1.00  0.00     0.003 A 
ATOM     18  N   UNL     1     149.495 160.662 150.320  1.00  0.00    -0.049 NA
ATOM     19  C   UNL     1     149.911 162.461 151.625  1.00  0.00     0.135 A 
ATOM     20  C   UNL     1     150.659 163.519 152.172  1.00  0.00     0.034 A 
ATOM     21  O   UNL     1     148.399 161.000 151.089  1.00  0.00    -0.243 OA
ATOM     22  N   UNL     1     148.651 162.098 151.893  1.00  0.00    -0.050 NA
ENDBRANCH   4  14
BRANCH   5  23
ATOM     23  C   UNL     1     151.701 162.244 147.180  1.00  0.00     0.337 C 
ATOM     24  O   UNL     1     150.738 161.677 146.687  1.00  0.00    -0.246 OA
BRANCH  23  25
ATOM     25  O   UNL     1     151.876 163.582 147.303  1.00  0.00    -0.460 OA
BRANCH  25  26
ATOM     26  C   UNL     1     150.703 164.348 147.629  1.00  0.00     0.170 C 
ATOM     27  C   UNL     1     151.130 165.416 148.629  1.00  0.00     0.052 C 
ATOM     28  C   UNL     1     150.141 164.983 146.363  1.00  0.00     0.052 C 
ENDBRANCH  25  26
ENDBRANCH  23  25
ENDBRANCH   5  23
TORSDOF 6
ENDMDL
MODEL 12
REMARK VINA RESULT:    -6.436      5.860      9.636
REMARK INTER + INTRA:          -9.966
REMARK INTER:                  -8.236
REMARK INTRA:                  -1.730
REMARK UNBOUND:                -1.272
REMARK SMILES COC(=O)C1=C(C)NC(C)=C(C(=O)OC(C)C)[C@@H]1c1cccc2nonc12
REMARK SMILES IDX 7 1 6 2 5 3 18 4 11 5 9 6 8 7 10 8 3 10 4 11 2 12 1 13 19 14
REMARK SMILES IDX 20 15 27 16 21 17 26 18 23 19 22 20 25 21 24 22 12 23 13 24
REMARK SMILES IDX 14 25 15 26 16 27 17 28
REMARK H PARENT 8 9
ROOT
ATOM      1  C   UNL     1     151.429 164.631 153.242  1.00  0.00     0.065 C 
ATOM      2  C   UNL     1     150.996 163.793 152.066  1.00  0.00     0.023 C 
ATOM      3  C   UNL     1     151.245 164.096 150.772  1.00  0.00     0.068 C 
ATOM      4  C   UNL     1     150.762 163.195 149.640  1.00  0.00     0.100 C 
ATOM      5  C   UNL     1     149.934 162.012 150.125  1.00  0.00     0.068 C 
ATOM      6  C   UNL     1     149.716 161.792 151.441  1.00  0.00     0.023 C 
ATOM      7  N   UNL     1     150.260 162.659 152.375  1.00  0.00    -0.362 N 
ATOM      8  C   UNL     1     148.868 160.677 151.996  1.00  0.00     0.065 C 
ATOM      9  H   UNL     1     150.124 162.439 153.359  1.00  0.00     0.166 HD
ENDROOT
BRANCH   3  10
ATOM     10  C   UNL     1     152.025 165.297 150.398  1.00  0.00     0.336 C 
ATOM     11  O   UNL     1     153.231 165.422 150.542  1.00  0.00    -0.246 OA
BRANCH  10  12
ATOM     12  O   UNL     1     151.189 166.231 149.874  1.00  0.00    -0.466 OA
ATOM     13  C   UNL     1     151.596 166.717 148.595  1.00  0.00     0.282 C 
ENDBRANCH  10  12
ENDBRANCH   3  10
BRANCH   4  14
ATOM     14  C   UNL     1     151.917 162.732 148.761  1.00  0.00    -0.004 A 
ATOM     15  C   UNL     1     152.032 163.164 147.411  1.00  0.00     0.007 A 
ATOM     16  C   UNL     1     152.955 161.849 149.152  1.00  0.00     0.139 A 
ATOM     17  C   UNL     1     153.077 162.768 146.535  1.00  0.00     0.003 A 
ATOM     18  N   UNL     1     153.162 161.240 150.328  1.00  0.00    -0.049 NA
ATOM     19  C   UNL     1     154.025 161.443 148.247  1.00  0.00     0.135 A 
ATOM     20  C   UNL     1     154.110 161.897 146.919  1.00  0.00     0.034 A 
ATOM     21  O   UNL     1     154.313 160.491 150.176  1.00  0.00    -0.243 OA
ATOM     22  N   UNL     1     154.841 160.609 148.902  1.00  0.00    -0.050 NA
ENDBRANCH   4  14
BRANCH   5  23
ATOM     23  C   UNL     1     149.374 161.166 149.050  1.00  0.00     0.337 C 
ATOM     24  O   UNL     1     148.497 161.547 148.290  1.00  0.00    -0.246 OA
BRANCH  23  25
ATOM     25  O   UNL     1     150.041 159.988 148.990  1.00  0.00    -0.460 OA
BRANCH  25  26
ATOM     26  C   UNL     1     149.880 159.229 147.779  1.00  0.00     0.170 C 
ATOM     27  C   UNL     1     151.197 159.315 147.019  1.00  0.00     0.052 C 
ATOM     28  C   UNL     1     149.546 157.783 148.126  1.00  0.00     0.052 C 
ENDBRANCH  25  26
ENDBRANCH  23  25
ENDBRANCH   5  23
TORSDOF 6
ENDMDL
MODEL 13
REMARK VINA RESULT:    -6.386     12.046     13.921
REMARK INTER + INTRA:          -9.898
REMARK INTER:                  -8.250
REMARK INTRA:                  -1.649
REMARK UNBOUND:                -1.272
REMARK SMILES COC(=O)C1=C(C)NC(C)=C(C(=O)OC(C)C)[C@@H]1c1cccc2nonc12
REMARK SMILES IDX 7 1 6 2 5 3 18 4 11 5 9 6 8 7 10 8 3 10 4 11 2 12 1 13 19 14
REMARK SMILES IDX 20 15 27 16 21 17 26 18 23 19 22 20 25 21 24 22 12 23 13 24
REMARK SMILES IDX 14 25 15 26 16 27 17 28
REMARK H PARENT 8 9
ROOT
ATOM      1  C   UNL     1     152.305 154.844 151.257  1.00  0.00     0.065 C 
ATOM      2  C   UNL     1     150.979 155.428 150.841  1.00  0.00     0.023 C 
ATOM      3  C   UNL     1     150.830 156.496 150.025  1.00  0.00     0.068 C 
ATOM      4  C   UNL     1     149.447 157.029 149.661  1.00  0.00     0.100 C 
ATOM      5  C   UNL     1     148.315 156.291 150.365  1.00  0.00     0.068 C 
ATOM      6  C   UNL     1     148.553 155.242 151.182  1.00  0.00     0.023 C 
ATOM      7  N   UNL     1     149.857 154.820 151.386  1.00  0.00    -0.362 N 
ATOM      8  C   UNL     1     147.494 154.495 151.952  1.00  0.00     0.065 C 
ATOM      9  H   UNL     1     150.003 153.996 151.964  1.00  0.00     0.166 HD
ENDROOT
BRANCH   3  10
ATOM     10  C   UNL     1     151.999 157.175 149.423  1.00  0.00     0.336 C 
ATOM     11  O   UNL     1     152.685 156.720 148.521  1.00  0.00    -0.246 OA
BRANCH  10  12
ATOM     12  O   UNL     1     152.185 158.375 150.032  1.00  0.00    -0.466 OA
ATOM     13  C   UNL     1     153.327 158.417 150.888  1.00  0.00     0.282 C 
ENDBRANCH  10  12
ENDBRANCH   3  10
BRANCH   4  14
ATOM     14  C   UNL     1     149.235 157.049 148.153  1.00  0.00    -0.004 A 
ATOM     15  C   UNL     1     149.275 155.850 147.389  1.00  0.00     0.007 A 
ATOM     16  C   UNL     1     149.000 158.202 147.362  1.00  0.00     0.139 A 
ATOM     17  C   UNL     1     149.093 155.795 145.982  1.00  0.00     0.003 A 
ATOM     18  N   UNL     1     148.912 159.487 147.731  1.00  0.00    -0.049 NA
ATOM     19  C   UNL     1     148.816 158.141 145.916  1.00  0.00     0.135 A 
ATOM     20  C   UNL     1     148.856 156.934 145.196  1.00  0.00     0.034 A 
ATOM     21  O   UNL     1     148.675 160.204 146.574  1.00  0.00    -0.243 OA
ATOM     22  N   UNL     1     148.621 159.384 145.461  1.00  0.00    -0.050 NA
ENDBRANCH   4  14
BRANCH   5  23
ATOM     23  C   UNL     1     146.966 156.837 150.105  1.00  0.00     0.337 C 
ATOM     24  O   UNL     1     146.626 157.961 150.440  1.00  0.00    -0.246 OA
BRANCH  23  25
ATOM     25  O   UNL     1     146.241 155.956 149.375  1.00  0.00    -0.460 OA
BRANCH  25  26
ATOM     26  C   UNL     1     145.104 156.494 148.677  1.00  0.00     0.170 C 
ATOM     27  C   UNL     1     145.161 155.962 147.251  1.00  0.00     0.052 C 
ATOM     28  C   UNL     1     143.823 156.051 149.373  1.00  0.00     0.052 C 
ENDBRANCH  25  26
ENDBRANCH  23  25
ENDBRANCH   5  23
TORSDOF 6
ENDMDL
MODEL 14
REMARK VINA RESULT:    -6.306      6.293     10.799
REMARK INTER + INTRA:          -9.790
REMARK INTER:                  -8.218
REMARK INTRA:                  -1.572
REMARK UNBOUND:                -1.272
REMARK SMILES COC(=O)C1=C(C)NC(C)=C(C(=O)OC(C)C)[C@@H]1c1cccc2nonc12
REMARK SMILES IDX 7 1 6 2 5 3 18 4 11 5 9 6 8 7 10 8 3 10 4 11 2 12 1 13 19 14
REMARK SMILES IDX 20 15 27 16 21 17 26 18 23 19 22 20 25 21 24 22 12 23 13 24
REMARK SMILES IDX 14 25 15 26 16 27 17 28
REMARK H PARENT 8 9
ROOT
ATOM      1  C   UNL     1     150.489 165.985 147.714  1.00  0.00     0.065 C 
ATOM      2  C   UNL     1     150.769 164.504 147.734  1.00  0.00     0.023 C 
ATOM      3  C   UNL     1     151.369 163.847 148.753  1.00  0.00     0.068 C 
ATOM      4  C   UNL     1     151.623 162.344 148.688  1.00  0.00     0.100 C 
ATOM      5  C   UNL     1     151.207 161.722 147.361  1.00  0.00     0.068 C 
ATOM      6  C   UNL     1     150.628 162.456 146.384  1.00  0.00     0.023 C 
ATOM      7  N   UNL     1     150.402 163.807 146.592  1.00  0.00    -0.362 N 
ATOM      8  C   UNL     1     150.237 161.925 145.029  1.00  0.00     0.065 C 
ATOM      9  H   UNL     1     149.918 164.323 145.861  1.00  0.00     0.166 HD
ENDROOT
BRANCH   3  10
ATOM     10  C   UNL     1     151.778 164.552 149.989  1.00  0.00     0.336 C 
ATOM     11  O   UNL     1     152.925 164.860 150.272  1.00  0.00    -0.246 OA
BRANCH  10  12
ATOM     12  O   UNL     1     150.680 164.797 150.751  1.00  0.00    -0.466 OA
ATOM     13  C   UNL     1     150.855 164.480 152.132  1.00  0.00     0.282 C 
ENDBRANCH  10  12
ENDBRANCH   3  10
BRANCH   4  14
ATOM     14  C   UNL     1     150.977 161.617 149.860  1.00  0.00    -0.004 A 
ATOM     15  C   UNL     1     149.568 161.636 150.050  1.00  0.00     0.007 A 
ATOM     16  C   UNL     1     151.662 160.885 150.863  1.00  0.00     0.139 A 
ATOM     17  C   UNL     1     148.900 160.988 151.123  1.00  0.00     0.003 A 
ATOM     18  N   UNL     1     152.976 160.666 151.013  1.00  0.00    -0.049 NA
ATOM     19  C   UNL     1     150.972 160.222 151.964  1.00  0.00     0.135 A 
ATOM     20  C   UNL     1     149.574 160.258 152.115  1.00  0.00     0.034 A 
ATOM     21  O   UNL     1     153.109 159.894 152.152  1.00  0.00    -0.243 OA
ATOM     22  N   UNL     1     151.885 159.625 152.739  1.00  0.00    -0.050 NA
ENDBRANCH   4  14
BRANCH   5  23
ATOM     23  C   UNL     1     151.519 160.283 147.228  1.00  0.00     0.337 C 
ATOM     24  O   UNL     1     150.660 159.415 147.190  1.00  0.00    -0.246 OA
BRANCH  23  25
ATOM     25  O   UNL     1     152.852 160.110 147.060  1.00  0.00    -0.460 OA
BRANCH  25  26
ATOM     26  C   UNL     1     153.249 159.263 145.968  1.00  0.00     0.170 C 
ATOM     27  C   UNL     1     153.451 160.163 144.755  1.00  0.00     0.052 C 
ATOM     28  C   UNL     1     154.540 158.539 146.328  1.00  0.00     0.052 C 
ENDBRANCH  25  26
ENDBRANCH  23  25
ENDBRANCH   5  23
TORSDOF 6
ENDMDL
MODEL 15
REMARK VINA RESULT:    -6.301      9.443     12.427
REMARK INTER + INTRA:          -9.782
REMARK INTER:                  -8.081
REMARK INTRA:                  -1.702
REMARK UNBOUND:                -1.272
REMARK SMILES COC(=O)C1=C(C)NC(C)=C(C(=O)OC(C)C)[C@@H]1c1cccc2nonc12
REMARK SMILES IDX 7 1 6 2 5 3 18 4 11 5 9 6 8 7 10 8 3 10 4 11 2 12 1 13 19 14
REMARK SMILES IDX 20 15 27 16 21 17 26 18 23 19 22 20 25 21 24 22 12 23 13 24
REMARK SMILES IDX 14 25 15 26 16 27 17 28
REMARK H PARENT 8 9
ROOT
ATOM      1  C   UNL     1     154.615 158.785 145.683  1.00  0.00     0.065 C 
ATOM      2  C   UNL     1     153.832 159.187 146.907  1.00  0.00     0.023 C 
ATOM      3  C   UNL     1     153.282 158.320 147.788  1.00  0.00     0.068 C 
ATOM      4  C   UNL     1     152.496 158.813 149.000  1.00  0.00     0.100 C 
ATOM      5  C   UNL     1     152.348 160.329 149.044  1.00  0.00     0.068 C 
ATOM      6  C   UNL     1     152.916 161.123 148.110  1.00  0.00     0.023 C 
ATOM      7  N   UNL     1     153.655 160.551 147.087  1.00  0.00    -0.362 N 
ATOM      8  C   UNL     1     152.773 162.622 148.057  1.00  0.00     0.065 C 
ATOM      9  H   UNL     1     154.114 161.175 146.429  1.00  0.00     0.166 HD
ENDROOT
BRANCH   3  10
ATOM     10  C   UNL     1     153.445 156.857 147.634  1.00  0.00     0.336 C 
ATOM     11  O   UNL     1     154.473 156.239 147.861  1.00  0.00    -0.246 OA
BRANCH  10  12
ATOM     12  O   UNL     1     152.276 156.317 147.201  1.00  0.00    -0.466 OA
ATOM     13  C   UNL     1     151.915 155.109 147.870  1.00  0.00     0.282 C 
ENDBRANCH  10  12
ENDBRANCH   3  10
BRANCH   4  14
ATOM     14  C   UNL     1     153.083 158.281 150.301  1.00  0.00    -0.004 A 
ATOM     15  C   UNL     1     152.359 157.363 151.111  1.00  0.00     0.007 A 
ATOM     16  C   UNL     1     154.345 158.626 150.846  1.00  0.00     0.139 A 
ATOM     17  C   UNL     1     152.840 156.832 152.337  1.00  0.00     0.003 A 
ATOM     18  N   UNL     1     155.280 159.461 150.372  1.00  0.00    -0.049 NA
ATOM     19  C   UNL     1     154.835 158.080 152.106  1.00  0.00     0.135 A 
ATOM     20  C   UNL     1     154.092 157.168 152.878  1.00  0.00     0.034 A 
ATOM     21  O   UNL     1     156.316 159.437 151.286  1.00  0.00    -0.243 OA
ATOM     22  N   UNL     1     156.044 158.597 152.352  1.00  0.00    -0.050 NA
ENDBRANCH   4  14
BRANCH   5  23
ATOM     23  C   UNL     1     151.518 160.836 150.156  1.00  0.00     0.337 C 
ATOM     24  O   UNL     1     151.977 161.458 151.102  1.00  0.00    -0.246 OA
BRANCH  23  25
ATOM     25  O   UNL     1     150.208 160.594 149.906  1.00  0.00    -0.460 OA
BRANCH  25  26
ATOM     26  C   UNL     1     149.488 159.885 150.930  1.00  0.00     0.170 C 
ATOM     27  C   UNL     1     148.468 160.855 151.513  1.00  0.00     0.052 C 
ATOM     28  C   UNL     1     148.798 158.672 150.319  1.00  0.00     0.052 C 
ENDBRANCH  25  26
ENDBRANCH  23  25
ENDBRANCH   5  23
TORSDOF 6
ENDMDL
MODEL 16
REMARK VINA RESULT:    -6.295      6.292      9.829
REMARK INTER + INTRA:          -9.775
REMARK INTER:                  -8.286
REMARK INTRA:                  -1.489
REMARK UNBOUND:                -1.272
REMARK SMILES COC(=O)C1=C(C)NC(C)=C(C(=O)OC(C)C)[C@@H]1c1cccc2nonc12
REMARK SMILES IDX 7 1 6 2 5 3 18 4 11 5 9 6 8 7 10 8 3 10 4 11 2 12 1 13 19 14
REMARK SMILES IDX 20 15 27 16 21 17 26 18 23 19 22 20 25 21 24 22 12 23 13 24
REMARK SMILES IDX 14 25 15 26 16 27 17 28
REMARK H PARENT 8 9
ROOT
ATOM      1  C   UNL     1     151.595 166.348 149.923  1.00  0.00     0.065 C 
ATOM      2  C   UNL     1     151.445 164.859 149.740  1.00  0.00     0.023 C 
ATOM      3  C   UNL     1     151.033 164.261 148.599  1.00  0.00     0.068 C 
ATOM      4  C   UNL     1     150.901 162.744 148.501  1.00  0.00     0.100 C 
ATOM      5  C   UNL     1     151.200 162.030 149.813  1.00  0.00     0.068 C 
ATOM      6  C   UNL     1     151.589 162.707 150.916  1.00  0.00     0.023 C 
ATOM      7  N   UNL     1     151.725 164.084 150.856  1.00  0.00    -0.362 N 
ATOM      8  C   UNL     1     151.853 162.079 152.260  1.00  0.00     0.065 C 
ATOM      9  H   UNL     1     152.070 164.562 151.685  1.00  0.00     0.166 HD
ENDROOT
BRANCH   3  10
ATOM     10  C   UNL     1     150.722 165.049 147.385  1.00  0.00     0.336 C 
ATOM     11  O   UNL     1     149.597 165.296 146.980  1.00  0.00    -0.246 OA
BRANCH  10  12
ATOM     12  O   UNL     1     151.881 165.449 146.799  1.00  0.00    -0.466 OA
ATOM     13  C   UNL     1     151.887 166.823 146.412  1.00  0.00     0.282 C 
ENDBRANCH  10  12
ENDBRANCH   3  10
BRANCH   4  14
ATOM     14  C   UNL     1     151.745 162.182 147.365  1.00  0.00    -0.004 A 
ATOM     15  C   UNL     1     153.164 162.277 147.388  1.00  0.00     0.007 A 
ATOM     16  C   UNL     1     151.250 161.543 146.200  1.00  0.00     0.139 A 
ATOM     17  C   UNL     1     154.012 161.782 146.362  1.00  0.00     0.003 A 
ATOM     18  N   UNL     1     149.986 161.291 145.835  1.00  0.00    -0.049 NA
ATOM     19  C   UNL     1     152.125 161.037 145.148  1.00  0.00     0.135 A 
ATOM     20  C   UNL     1     153.526 161.144 145.209  1.00  0.00     0.034 A 
ATOM     21  O   UNL     1     150.058 160.650 144.614  1.00  0.00    -0.243 OA
ATOM     22  N   UNL     1     151.366 160.497 144.188  1.00  0.00    -0.050 NA
ENDBRANCH   4  14
BRANCH   5  23
ATOM     23  C   UNL     1     150.996 160.566 149.780  1.00  0.00     0.337 C 
ATOM     24  O   UNL     1     151.914 159.763 149.851  1.00  0.00    -0.246 OA
BRANCH  23  25
ATOM     25  O   UNL     1     149.672 160.281 149.762  1.00  0.00    -0.460 OA
BRANCH  25  26
ATOM     26  C   UNL     1     149.165 159.553 150.894  1.00  0.00     0.170 C 
ATOM     27  C   UNL     1     148.436 160.554 151.782  1.00  0.00     0.052 C 
ATOM     28  C   UNL     1     148.215 158.462 150.413  1.00  0.00     0.052 C 
ENDBRANCH  25  26
ENDBRANCH  23  25
ENDBRANCH   5  23
TORSDOF 6
ENDMDL
MODEL 17
REMARK VINA RESULT:    -6.258      5.930      8.824
REMARK INTER + INTRA:          -9.726
REMARK INTER:                  -8.213
REMARK INTRA:                  -1.512
REMARK UNBOUND:                -1.272
REMARK SMILES COC(=O)C1=C(C)NC(C)=C(C(=O)OC(C)C)[C@@H]1c1cccc2nonc12
REMARK SMILES IDX 7 1 6 2 5 3 18 4 11 5 9 6 8 7 10 8 3 10 4 11 2 12 1 13 19 14
REMARK SMILES IDX 20 15 27 16 21 17 26 18 23 19 22 20 25 21 24 22 12 23 13 24
REMARK SMILES IDX 14 25 15 26 16 27 17 28
REMARK H PARENT 8 9
ROOT
ATOM      1  C   UNL     1     151.461 159.776 152.851  1.00  0.00     0.065 C 
ATOM      2  C   UNL     1     151.590 160.993 151.970  1.00  0.00     0.023 C 
ATOM      3  C   UNL     1     152.231 161.016 150.779  1.00  0.00     0.068 C 
ATOM      4  C   UNL     1     152.322 162.296 149.953  1.00  0.00     0.100 C 
ATOM      5  C   UNL     1     151.700 163.503 150.645  1.00  0.00     0.068 C 
ATOM      6  C   UNL     1     151.093 163.395 151.847  1.00  0.00     0.023 C 
ATOM      7  N   UNL     1     151.029 162.159 152.469  1.00  0.00    -0.362 N 
ATOM      8  C   UNL     1     150.502 164.548 152.616  1.00  0.00     0.065 C 
ATOM      9  H   UNL     1     150.521 162.098 153.348  1.00  0.00     0.166 HD
ENDROOT
BRANCH   3  10
ATOM     10  C   UNL     1     152.844 159.796 150.210  1.00  0.00     0.336 C 
ATOM     11  O   UNL     1     152.246 158.944 149.571  1.00  0.00    -0.246 OA
BRANCH  10  12
ATOM     12  O   UNL     1     154.169 159.775 150.512  1.00  0.00    -0.466 OA
ATOM     13  C   UNL     1     154.627 158.518 151.011  1.00  0.00     0.282 C 
ENDBRANCH  10  12
ENDBRANCH   3  10
BRANCH   4  14
ATOM     14  C   UNL     1     151.742 162.104 148.558  1.00  0.00    -0.004 A 
ATOM     15  C   UNL     1     152.562 162.208 147.401  1.00  0.00     0.007 A 
ATOM     16  C   UNL     1     150.385 161.828 148.254  1.00  0.00     0.139 A 
ATOM     17  C   UNL     1     152.088 162.049 146.072  1.00  0.00     0.003 A 
ATOM     18  N   UNL     1     149.339 161.676 149.077  1.00  0.00    -0.049 NA
ATOM     19  C   UNL     1     149.902 161.666 146.887  1.00  0.00     0.135 A 
ATOM     20  C   UNL     1     150.745 161.771 145.766  1.00  0.00     0.034 A 
ATOM     21  O   UNL     1     148.247 161.423 148.269  1.00  0.00    -0.243 OA
ATOM     22  N   UNL     1     148.587 161.421 146.927  1.00  0.00    -0.050 NA
ENDBRANCH   4  14
BRANCH   5  23
ATOM     23  C   UNL     1     151.848 164.778 149.913  1.00  0.00     0.337 C 
ATOM     24  O   UNL     1     152.847 165.477 149.987  1.00  0.00    -0.246 OA
BRANCH  23  25
ATOM     25  O   UNL     1     150.779 164.979 149.107  1.00  0.00    -0.460 OA
BRANCH  25  26
ATOM     26  C   UNL     1     150.991 165.839 147.973  1.00  0.00     0.170 C 
ATOM     27  C   UNL     1     150.205 165.248 146.809  1.00  0.00     0.052 C 
ATOM     28  C   UNL     1     150.502 167.244 148.302  1.00  0.00     0.052 C 
ENDBRANCH  25  26
ENDBRANCH  23  25
ENDBRANCH   5  23
TORSDOF 6
ENDMDL
MODEL 18
REMARK VINA RESULT:    -6.253      7.815     11.170
REMARK INTER + INTRA:          -9.718
REMARK INTER:                  -7.993
REMARK INTRA:                  -1.725
REMARK UNBOUND:                -1.272
REMARK SMILES COC(=O)C1=C(C)NC(C)=C(C(=O)OC(C)C)[C@@H]1c1cccc2nonc12
REMARK SMILES IDX 7 1 6 2 5 3 18 4 11 5 9 6 8 7 10 8 3 10 4 11 2 12 1 13 19 14
REMARK SMILES IDX 20 15 27 16 21 17 26 18 23 19 22 20 25 21 24 22 12 23 13 24
REMARK SMILES IDX 14 25 15 26 16 27 17 28
REMARK H PARENT 8 9
ROOT
ATOM      1  C   UNL     1     156.267 159.265 149.894  1.00  0.00     0.065 C 
ATOM      2  C   UNL     1     155.062 159.931 149.280  1.00  0.00     0.023 C 
ATOM      3  C   UNL     1     153.795 159.803 149.737  1.00  0.00     0.068 C 
ATOM      4  C   UNL     1     152.630 160.507 149.049  1.00  0.00     0.100 C 
ATOM      5  C   UNL     1     153.043 161.269 147.796  1.00  0.00     0.068 C 
ATOM      6  C   UNL     1     154.333 161.332 147.398  1.00  0.00     0.023 C 
ATOM      7  N   UNL     1     155.308 160.691 148.146  1.00  0.00    -0.362 N 
ATOM      8  C   UNL     1     154.813 162.021 146.147  1.00  0.00     0.065 C 
ATOM      9  H   UNL     1     156.276 160.799 147.853  1.00  0.00     0.166 HD
ENDROOT
BRANCH   3  10
ATOM     10  C   UNL     1     153.488 159.000 150.941  1.00  0.00     0.336 C 
ATOM     11  O   UNL     1     153.645 159.377 152.092  1.00  0.00    -0.246 OA
BRANCH  10  12
ATOM     12  O   UNL     1     153.010 157.786 150.563  1.00  0.00    -0.466 OA
ATOM     13  C   UNL     1     151.821 157.395 151.251  1.00  0.00     0.282 C 
ENDBRANCH  10  12
ENDBRANCH   3  10
BRANCH   4  14
ATOM     14  C   UNL     1     151.872 161.408 150.015  1.00  0.00    -0.004 A 
ATOM     15  C   UNL     1     152.477 162.576 150.558  1.00  0.00     0.007 A 
ATOM     16  C   UNL     1     150.550 161.201 150.482  1.00  0.00     0.139 A 
ATOM     17  C   UNL     1     151.835 163.456 151.467  1.00  0.00     0.003 A 
ATOM     18  N   UNL     1     149.690 160.213 150.200  1.00  0.00    -0.049 NA
ATOM     19  C   UNL     1     149.894 162.107 151.418  1.00  0.00     0.135 A 
ATOM     20  C   UNL     1     150.523 163.257 151.929  1.00  0.00     0.034 A 
ATOM     21  O   UNL     1     148.541 160.486 150.919  1.00  0.00    -0.243 OA
ATOM     22  N   UNL     1     148.665 161.643 151.669  1.00  0.00    -0.050 NA
ENDBRANCH   4  14
BRANCH   5  23
ATOM     23  C   UNL     1     151.926 161.891 147.054  1.00  0.00     0.337 C 
ATOM     24  O   UNL     1     151.744 163.098 147.010  1.00  0.00    -0.246 OA
BRANCH  23  25
ATOM     25  O   UNL     1     151.231 160.944 146.380  1.00  0.00    -0.460 OA
BRANCH  25  26
ATOM     26  C   UNL     1     151.341 160.977 144.946  1.00  0.00     0.170 C 
ATOM     27  C   UNL     1     152.175 159.771 144.532  1.00  0.00     0.052 C 
ATOM     28  C   UNL     1     149.950 160.914 144.328  1.00  0.00     0.052 C 
ENDBRANCH  25  26
ENDBRANCH  23  25
ENDBRANCH   5  23
TORSDOF 6
ENDMDL
MODEL 19
REMARK VINA RESULT:    -6.216      9.709     12.532
REMARK INTER + INTRA:          -9.668
REMARK INTER:                  -7.825
REMARK INTRA:                  -1.842
REMARK UNBOUND:                -1.272
REMARK SMILES COC(=O)C1=C(C)NC(C)=C(C(=O)OC(C)C)[C@@H]1c1cccc2nonc12
REMARK SMILES IDX 7 1 6 2 5 3 18 4 11 5 9 6 8 7 10 8 3 10 4 11 2 12 1 13 19 14
REMARK SMILES IDX 20 15 27 16 21 17 26 18 23 19 22 20 25 21 24 22 12 23 13 24
REMARK SMILES IDX 14 25 15 26 16 27 17 28
REMARK H PARENT 8 9
ROOT
ATOM      1  C   UNL     1     145.748 158.003 149.428  1.00  0.00     0.065 C 
ATOM      2  C   UNL     1     147.183 157.624 149.690  1.00  0.00     0.023 C 
ATOM      3  C   UNL     1     148.256 158.346 149.294  1.00  0.00     0.068 C 
ATOM      4  C   UNL     1     149.679 157.884 149.595  1.00  0.00     0.100 C 
ATOM      5  C   UNL     1     149.736 156.531 150.294  1.00  0.00     0.068 C 
ATOM      6  C   UNL     1     148.612 155.865 150.640  1.00  0.00     0.023 C 
ATOM      7  N   UNL     1     147.376 156.423 150.358  1.00  0.00    -0.362 N 
ATOM      8  C   UNL     1     148.586 154.504 151.285  1.00  0.00     0.065 C 
ATOM      9  H   UNL     1     146.548 155.924 150.676  1.00  0.00     0.166 HD
ENDROOT
BRANCH   3  10
ATOM     10  C   UNL     1     148.097 159.632 148.578  1.00  0.00     0.336 C 
ATOM     11  O   UNL     1     147.753 160.683 149.096  1.00  0.00    -0.246 OA
BRANCH  10  12
ATOM     12  O   UNL     1     148.390 159.455 147.264  1.00  0.00    -0.466 OA
ATOM     13  C   UNL     1     149.396 160.341 146.774  1.00  0.00     0.282 C 
ENDBRANCH  10  12
ENDBRANCH   3  10
BRANCH   4  14
ATOM     14  C   UNL     1     150.455 158.937 150.374  1.00  0.00    -0.004 A 
ATOM     15  C   UNL     1     149.973 159.436 151.616  1.00  0.00     0.007 A 
ATOM     16  C   UNL     1     151.679 159.532 149.975  1.00  0.00     0.139 A 
ATOM     17  C   UNL     1     150.640 160.421 152.391  1.00  0.00     0.003 A 
ATOM     18  N   UNL     1     152.411 159.321 148.873  1.00  0.00    -0.049 NA
ATOM     19  C   UNL     1     152.359 160.545 150.774  1.00  0.00     0.135 A 
ATOM     20  C   UNL     1     151.855 161.010 152.002  1.00  0.00     0.034 A 
ATOM     21  O   UNL     1     153.507 160.157 148.974  1.00  0.00    -0.243 OA
ATOM     22  N   UNL     1     153.476 160.910 150.134  1.00  0.00    -0.050 NA
ENDBRANCH   4  14
BRANCH   5  23
ATOM     23  C   UNL     1     151.100 156.011 150.522  1.00  0.00     0.337 C 
ATOM     24  O   UNL     1     151.825 155.621 149.619  1.00  0.00    -0.246 OA
BRANCH  23  25
ATOM     25  O   UNL     1     151.430 156.130 151.830  1.00  0.00    -0.460 OA
BRANCH  25  26
ATOM     26  C   UNL     1     152.833 156.056 152.139  1.00  0.00     0.170 C 
ATOM     27  C   UNL     1     153.255 157.434 152.635  1.00  0.00     0.052 C 
ATOM     28  C   UNL     1     153.063 154.999 153.213  1.00  0.00     0.052 C 
ENDBRANCH  25  26
ENDBRANCH  23  25
ENDBRANCH   5  23
TORSDOF 6
ENDMDL
MODEL 20
REMARK VINA RESULT:    -6.202      7.091     10.746
REMARK INTER + INTRA:          -9.649
REMARK INTER:                  -8.288
REMARK INTRA:                  -1.361
REMARK UNBOUND:                -1.272
REMARK SMILES COC(=O)C1=C(C)NC(C)=C(C(=O)OC(C)C)[C@@H]1c1cccc2nonc12
REMARK SMILES IDX 7 1 6 2 5 3 18 4 11 5 9 6 8 7 10 8 3 10 4 11 2 12 1 13 19 14
REMARK SMILES IDX 20 15 27 16 21 17 26 18 23 19 22 20 25 21 24 22 12 23 13 24
REMARK SMILES IDX 14 25 15 26 16 27 17 28
REMARK H PARENT 8 9
ROOT
ATOM      1  C   UNL     1     151.008 157.358 150.878  1.00  0.00     0.065 C 
ATOM      2  C   UNL     1     151.958 158.381 150.308  1.00  0.00     0.023 C 
ATOM      3  C   UNL     1     151.596 159.397 149.492  1.00  0.00     0.068 C 
ATOM      4  C   UNL     1     152.626 160.385 148.952  1.00  0.00     0.100 C 
ATOM      5  C   UNL     1     154.054 160.050 149.364  1.00  0.00     0.068 C 
ATOM      6  C   UNL     1     154.331 159.002 150.171  1.00  0.00     0.023 C 
ATOM      7  N   UNL     1     153.294 158.211 150.640  1.00  0.00    -0.362 N 
ATOM      8  C   UNL     1     155.717 158.577 150.581  1.00  0.00     0.065 C 
ATOM      9  H   UNL     1     153.526 157.462 151.287  1.00  0.00     0.166 HD
ENDROOT
BRANCH   3  10
ATOM     10  C   UNL     1     150.182 159.614 149.111  1.00  0.00     0.336 C 
ATOM     11  O   UNL     1     149.724 159.440 147.993  1.00  0.00    -0.246 OA
BRANCH  10  12
ATOM     12  O   UNL     1     149.483 160.034 150.198  1.00  0.00    -0.466 OA
ATOM     13  C   UNL     1     148.719 161.218 149.969  1.00  0.00     0.282 C 
ENDBRANCH  10  12
ENDBRANCH   3  10
BRANCH   4  14
ATOM     14  C   UNL     1     152.270 161.820 149.320  1.00  0.00    -0.004 A 
ATOM     15  C   UNL     1     151.959 162.780 148.318  1.00  0.00     0.007 A 
ATOM     16  C   UNL     1     152.224 162.353 150.633  1.00  0.00     0.139 A 
ATOM     17  C   UNL     1     151.627 164.134 148.589  1.00  0.00     0.003 A 
ATOM     18  N   UNL     1     152.467 161.755 151.807  1.00  0.00    -0.049 NA
ATOM     19  C   UNL     1     151.884 163.745 150.906  1.00  0.00     0.135 A 
ATOM     20  C   UNL     1     151.575 164.665 149.888  1.00  0.00     0.034 A 
ATOM     21  O   UNL     1     152.282 162.721 152.777  1.00  0.00    -0.243 OA
ATOM     22  N   UNL     1     151.929 163.942 152.229  1.00  0.00    -0.050 NA
ENDBRANCH   4  14
BRANCH   5  23
ATOM     23  C   UNL     1     155.087 160.935 148.787  1.00  0.00     0.337 C 
ATOM     24  O   UNL     1     155.502 161.934 149.354  1.00  0.00    -0.246 OA
BRANCH  23  25
ATOM     25  O   UNL     1     155.546 160.416 147.623  1.00  0.00    -0.460 OA
BRANCH  25  26
ATOM     26  C   UNL     1     154.712 160.613 146.468  1.00  0.00     0.170 C 
ATOM     27  C   UNL     1     154.915 162.052 146.010  1.00  0.00     0.052 C 
ATOM     28  C   UNL     1     155.118 159.633 145.374  1.00  0.00     0.052 C 
ENDBRANCH  25  26
ENDBRANCH  23  25
ENDBRANCH   5  23
TORSDOF 6
ENDMDL
