MODEL 1
REMARK VINA RESULT:     0.219      0.000      0.000
REMARK INTER + INTRA:           0.720
REMARK INTER:                   0.309
REMARK INTRA:                   0.411
REMARK UNBOUND:                 0.411
REMARK SMILES Cc1ccc(NC(=O)c2ccc(CN3CCN(C)CC3)cc2)cc1Nc1nc(-c2cccnc2)cs1
REMARK SMILES IDX 6 1 7 2 8 3 5 5 2 6 3 7 24 8 4 9 23 10 1 11 25 12 26 14
REMARK SMILES IDX 27 15 36 16 28 17 35 18 29 19 30 20 34 21 31 22 33 23 32 24
REMARK SMILES IDX 9 25 10 26 22 27 11 28 21 29 12 30 13 31 14 32 15 33 20 34
REMARK SMILES IDX 16 35 19 36 17 37 18 38
REMARK H PARENT 6 4 25 13
ROOT
ATOM      1  N   UNL     1      31.113  27.600  45.863  1.00  0.00    -0.322 N 
ATOM      2  C   UNL     1      31.042  28.871  46.404  1.00  0.00     0.255 C 
ATOM      3  O   UNL     1      30.472  29.202  47.436  1.00  0.00    -0.269 OA
ATOM      4  H   UNL     1      31.746  27.473  45.085  1.00  0.00     0.170 HD
ENDROOT
BRANCH   1   5
ATOM      5  C   UNL     1      30.499  26.427  46.352  1.00  0.00     0.043 A 
ATOM      6  C   UNL     1      29.381  24.089  47.473  1.00  0.00    -0.027 A 
ATOM      7  C   UNL     1      30.555  24.642  47.999  1.00  0.00     0.008 A 
ATOM      8  C   UNL     1      28.780  24.696  46.355  1.00  0.00     0.045 A 
ATOM      9  C   UNL     1      31.106  25.800  47.444  1.00  0.00     0.026 A 
ATOM     10  C   UNL     1      29.345  25.863  45.808  1.00  0.00     0.052 A 
ATOM     11  C   UNL     1      28.814  22.842  48.095  1.00  0.00     0.046 C 
BRANCH   8  12
ATOM     12  N   UNL     1      27.618  24.141  45.766  1.00  0.00    -0.331 N 
ATOM     13  H   UNL     1      27.111  23.571  46.439  1.00  0.00     0.169 HD
BRANCH  12  14
ATOM     14  C   UNL     1      26.752  24.860  45.001  1.00  0.00     0.187 A 
ATOM     15  N   UNL     1      26.638  24.638  43.709  1.00  0.00    -0.220 NA
ATOM     16  S   UNL     1      25.737  26.130  45.585  1.00  0.00    -0.105 S 
ATOM     17  C   UNL     1      25.720  25.497  43.122  1.00  0.00     0.085 A 
ATOM     18  C   UNL     1      25.123  26.374  44.005  1.00  0.00     0.097 A 
BRANCH  17  19
ATOM     19  C   UNL     1      25.450  25.433  41.689  1.00  0.00     0.019 A 
ATOM     20  C   UNL     1      24.849  24.335  41.065  1.00  0.00     0.013 A 
ATOM     21  C   UNL     1      25.787  26.510  40.869  1.00  0.00     0.121 A 
ATOM     22  C   UNL     1      24.615  24.356  39.688  1.00  0.00     0.021 A 
ATOM     23  N   UNL     1      25.573  26.558  39.529  1.00  0.00    -0.264 NA
ATOM     24  C   UNL     1      24.991  25.478  38.971  1.00  0.00     0.111 A 
ENDBRANCH  17  19
ENDBRANCH  12  14
ENDBRANCH   8  12
ENDBRANCH   1   5
BRANCH   2  25
ATOM     25  C   UNL     1      31.795  29.909  45.645  1.00  0.00     0.040 A 
ATOM     26  C   UNL     1      33.177  30.004  45.834  1.00  0.00     0.014 A 
ATOM     27  C   UNL     1      31.150  30.789  44.767  1.00  0.00     0.014 A 
ATOM     28  C   UNL     1      33.916  30.952  45.123  1.00  0.00     0.006 A 
ATOM     29  C   UNL     1      31.892  31.740  44.060  1.00  0.00     0.006 A 
ATOM     30  C   UNL     1      33.283  31.822  44.222  1.00  0.00    -0.034 A 
BRANCH  30  31
ATOM     31  C   UNL     1      34.087  32.864  43.465  1.00  0.00     0.120 C 
BRANCH  31  32
ATOM     32  N   UNL     1      33.788  34.240  43.900  1.00  0.00    -0.297 NA
ATOM     33  C   UNL     1      34.980  34.860  44.507  1.00  0.00     0.100 C 
ATOM     34  C   UNL     1      32.669  34.274  44.874  1.00  0.00     0.100 C 
ATOM     35  C   UNL     1      35.421  34.271  45.875  1.00  0.00     0.099 C 
ATOM     36  C   UNL     1      33.061  34.319  46.377  1.00  0.00     0.099 C 
ATOM     37  N   UNL     1      34.333  33.635  46.641  1.00  0.00    -0.304 NA
ATOM     38  C   UNL     1      34.641  33.593  48.067  1.00  0.00     0.105 C 
ENDBRANCH  31  32
ENDBRANCH  30  31
ENDBRANCH   2  25
TORSDOF 7
ENDMDL
MODEL 2
REMARK VINA RESULT:     1.049      2.798     10.126
REMARK INTER + INTRA:           1.890
REMARK INTER:                   2.686
REMARK INTRA:                  -0.796
REMARK UNBOUND:                 0.411
REMARK SMILES Cc1ccc(NC(=O)c2ccc(CN3CCN(C)CC3)cc2)cc1Nc1nc(-c2cccnc2)cs1
REMARK SMILES IDX 6 1 7 2 8 3 5 5 2 6 3 7 24 8 4 9 23 10 1 11 25 12 26 14
REMARK SMILES IDX 27 15 36 16 28 17 35 18 29 19 30 20 34 21 31 22 33 23 32 24
REMARK SMILES IDX 9 25 10 26 22 27 11 28 21 29 12 30 13 31 14 32 15 33 20 34
REMARK SMILES IDX 16 35 19 36 17 37 18 38
REMARK H PARENT 6 4 25 13
ROOT
ATOM      1  N   UNL     1      27.529  24.793  44.397  1.00  0.00    -0.322 N 
ATOM      2  C   UNL     1      26.310  25.447  44.417  1.00  0.00     0.255 C 
ATOM      3  O   UNL     1      25.804  26.031  45.367  1.00  0.00    -0.269 OA
ATOM      4  H   UNL     1      27.866  24.491  43.494  1.00  0.00     0.170 HD
ENDROOT
BRANCH   1   5
ATOM      5  C   UNL     1      28.418  24.608  45.477  1.00  0.00     0.043 A 
ATOM      6  C   UNL     1      30.176  24.059  47.618  1.00  0.00    -0.027 A 
ATOM      7  C   UNL     1      29.390  23.043  47.061  1.00  0.00     0.008 A 
ATOM      8  C   UNL     1      30.057  25.369  47.118  1.00  0.00     0.045 A 
ATOM      9  C   UNL     1      28.522  23.315  46.001  1.00  0.00     0.026 A 
ATOM     10  C   UNL     1      29.180  25.628  46.048  1.00  0.00     0.052 A 
ATOM     11  C   UNL     1      31.101  23.730  48.758  1.00  0.00     0.046 C 
BRANCH   8  12
ATOM     12  N   UNL     1      30.800  26.431  47.684  1.00  0.00    -0.331 N 
ATOM     13  H   UNL     1      31.725  26.114  47.965  1.00  0.00     0.169 HD
BRANCH  12  14
ATOM     14  C   UNL     1      30.871  27.673  47.129  1.00  0.00     0.187 A 
ATOM     15  N   UNL     1      31.563  27.890  46.031  1.00  0.00    -0.220 NA
ATOM     16  S   UNL     1      30.117  29.088  47.773  1.00  0.00    -0.105 S 
ATOM     17  C   UNL     1      31.519  29.225  45.656  1.00  0.00     0.085 A 
ATOM     18  C   UNL     1      30.764  30.022  46.492  1.00  0.00     0.097 A 
BRANCH  17  19
ATOM     19  C   UNL     1      32.233  29.689  44.470  1.00  0.00     0.019 A 
ATOM     20  C   UNL     1      32.031  30.945  43.890  1.00  0.00     0.013 A 
ATOM     21  C   UNL     1      33.183  28.867  43.864  1.00  0.00     0.121 A 
ATOM     22  C   UNL     1      32.762  31.320  42.760  1.00  0.00     0.021 A 
ATOM     23  N   UNL     1      33.908  29.203  42.765  1.00  0.00    -0.264 NA
ATOM     24  C   UNL     1      33.680  30.423  42.241  1.00  0.00     0.111 A 
ENDBRANCH  17  19
ENDBRANCH  12  14
ENDBRANCH   8  12
ENDBRANCH   1   5
BRANCH   2  25
ATOM     25  C   UNL     1      25.596  25.464  43.110  1.00  0.00     0.040 A 
ATOM     26  C   UNL     1      26.305  25.119  41.956  1.00  0.00     0.014 A 
ATOM     27  C   UNL     1      24.247  25.828  43.016  1.00  0.00     0.014 A 
ATOM     28  C   UNL     1      25.661  25.105  40.718  1.00  0.00     0.006 A 
ATOM     29  C   UNL     1      23.605  25.818  41.773  1.00  0.00     0.006 A 
ATOM     30  C   UNL     1      24.303  25.444  40.615  1.00  0.00    -0.034 A 
BRANCH  30  31
ATOM     31  C   UNL     1      23.610  25.445  39.264  1.00  0.00     0.120 C 
BRANCH  31  32
ATOM     32  N   UNL     1      24.523  25.786  38.157  1.00  0.00    -0.297 NA
ATOM     33  C   UNL     1      23.840  26.644  37.172  1.00  0.00     0.100 C 
ATOM     34  C   UNL     1      25.035  24.571  37.478  1.00  0.00     0.100 C 
ATOM     35  C   UNL     1      22.716  25.958  36.348  1.00  0.00     0.099 C 
ATOM     36  C   UNL     1      24.289  24.135  36.186  1.00  0.00     0.099 C 
ATOM     37  N   UNL     1      22.867  24.496  36.216  1.00  0.00    -0.304 NA
ATOM     38  C   UNL     1      22.154  23.992  35.047  1.00  0.00     0.105 C 
ENDBRANCH  31  32
ENDBRANCH  30  31
ENDBRANCH   2  25
TORSDOF 7
ENDMDL
MODEL 3
REMARK VINA RESULT:     2.889      2.470     10.655
REMARK INTER + INTRA:           4.483
REMARK INTER:                   5.279
REMARK INTRA:                  -0.797
REMARK UNBOUND:                 0.411
REMARK SMILES Cc1ccc(NC(=O)c2ccc(CN3CCN(C)CC3)cc2)cc1Nc1nc(-c2cccnc2)cs1
REMARK SMILES IDX 6 1 7 2 8 3 5 5 2 6 3 7 24 8 4 9 23 10 1 11 25 12 26 14
REMARK SMILES IDX 27 15 36 16 28 17 35 18 29 19 30 20 34 21 31 22 33 23 32 24
REMARK SMILES IDX 9 25 10 26 22 27 11 28 21 29 12 30 13 31 14 32 15 33 20 34
REMARK SMILES IDX 16 35 19 36 17 37 18 38
REMARK H PARENT 6 4 25 13
ROOT
ATOM      1  N   UNL     1      27.347  24.940  44.270  1.00  0.00    -0.322 N 
ATOM      2  C   UNL     1      26.098  25.536  44.280  1.00  0.00     0.255 C 
ATOM      3  O   UNL     1      25.556  26.095  45.225  1.00  0.00    -0.269 OA
ATOM      4  H   UNL     1      27.706  24.655  43.370  1.00  0.00     0.170 HD
ENDROOT
BRANCH   1   5
ATOM      5  C   UNL     1      28.234  24.798  45.358  1.00  0.00     0.043 A 
ATOM      6  C   UNL     1      29.980  24.334  47.529  1.00  0.00    -0.027 A 
ATOM      7  C   UNL     1      29.146  23.315  47.053  1.00  0.00     0.008 A 
ATOM      8  C   UNL     1      29.916  25.606  46.931  1.00  0.00     0.045 A 
ATOM      9  C   UNL     1      28.284  23.545  45.978  1.00  0.00     0.026 A 
ATOM     10  C   UNL     1      29.044  25.823  45.848  1.00  0.00     0.052 A 
ATOM     11  C   UNL     1      30.898  24.051  48.687  1.00  0.00     0.046 C 
BRANCH   8  12
ATOM     12  N   UNL     1      30.709  26.674  47.413  1.00  0.00    -0.331 N 
ATOM     13  H   UNL     1      31.200  26.404  48.262  1.00  0.00     0.169 HD
BRANCH  12  14
ATOM     14  C   UNL     1      31.517  27.425  46.614  1.00  0.00     0.187 A 
ATOM     15  N   UNL     1      31.601  28.730  46.764  1.00  0.00    -0.220 NA
ATOM     16  S   UNL     1      32.488  26.804  45.327  1.00  0.00    -0.105 S 
ATOM     17  C   UNL     1      32.459  29.296  45.833  1.00  0.00     0.085 A 
ATOM     18  C   UNL     1      33.040  28.385  44.973  1.00  0.00     0.097 A 
BRANCH  17  19
ATOM     19  C   UNL     1      32.688  30.737  45.810  1.00  0.00     0.019 A 
ATOM     20  C   UNL     1      31.710  31.668  45.442  1.00  0.00     0.013 A 
ATOM     21  C   UNL     1      33.931  31.251  46.179  1.00  0.00     0.121 A 
ATOM     22  C   UNL     1      32.004  33.033  45.457  1.00  0.00     0.021 A 
ATOM     23  N   UNL     1      34.247  32.572  46.202  1.00  0.00    -0.264 NA
ATOM     24  C   UNL     1      33.273  33.432  45.840  1.00  0.00     0.111 A 
ENDBRANCH  17  19
ENDBRANCH  12  14
ENDBRANCH   8  12
ENDBRANCH   1   5
BRANCH   2  25
ATOM     25  C   UNL     1      25.395  25.519  42.966  1.00  0.00     0.040 A 
ATOM     26  C   UNL     1      26.116  25.150  41.827  1.00  0.00     0.014 A 
ATOM     27  C   UNL     1      24.045  25.875  42.851  1.00  0.00     0.014 A 
ATOM     28  C   UNL     1      25.483  25.105  40.584  1.00  0.00     0.006 A 
ATOM     29  C   UNL     1      23.415  25.832  41.604  1.00  0.00     0.006 A 
ATOM     30  C   UNL     1      24.124  25.435  40.461  1.00  0.00    -0.034 A 
BRANCH  30  31
ATOM     31  C   UNL     1      23.443  25.401  39.104  1.00  0.00     0.120 C 
BRANCH  31  32
ATOM     32  N   UNL     1      24.340  25.814  38.008  1.00  0.00    -0.297 NA
ATOM     33  C   UNL     1      23.615  26.656  37.039  1.00  0.00     0.100 C 
ATOM     34  C   UNL     1      24.916  24.642  37.304  1.00  0.00     0.100 C 
ATOM     35  C   UNL     1      22.530  25.930  36.197  1.00  0.00     0.099 C 
ATOM     36  C   UNL     1      24.197  24.196  36.002  1.00  0.00     0.099 C 
ATOM     37  N   UNL     1      22.758  24.481  36.034  1.00  0.00    -0.304 NA
ATOM     38  C   UNL     1      22.074  23.966  34.852  1.00  0.00     0.105 C 
ENDBRANCH  31  32
ENDBRANCH  30  31
ENDBRANCH   2  25
TORSDOF 7
ENDMDL
MODEL 4
REMARK VINA RESULT:     3.129      1.189      2.164
REMARK INTER + INTRA:           4.821
REMARK INTER:                   1.654
REMARK INTRA:                   3.167
REMARK UNBOUND:                 0.411
REMARK SMILES Cc1ccc(NC(=O)c2ccc(CN3CCN(C)CC3)cc2)cc1Nc1nc(-c2cccnc2)cs1
REMARK SMILES IDX 6 1 7 2 8 3 5 5 2 6 3 7 24 8 4 9 23 10 1 11 25 12 26 14
REMARK SMILES IDX 27 15 36 16 28 17 35 18 29 19 30 20 34 21 31 22 33 23 32 24
REMARK SMILES IDX 9 25 10 26 22 27 11 28 21 29 12 30 13 31 14 32 15 33 20 34
REMARK SMILES IDX 16 35 19 36 17 37 18 38
REMARK H PARENT 6 4 25 13
ROOT
ATOM      1  N   UNL     1      30.920  27.598  45.995  1.00  0.00    -0.322 N 
ATOM      2  C   UNL     1      30.911  28.642  46.904  1.00  0.00     0.255 C 
ATOM      3  O   UNL     1      30.439  28.630  48.034  1.00  0.00    -0.269 OA
ATOM      4  H   UNL     1      31.479  27.727  45.163  1.00  0.00     0.170 HD
ENDROOT
BRANCH   1   5
ATOM      5  C   UNL     1      30.340  26.322  46.153  1.00  0.00     0.043 A 
ATOM      6  C   UNL     1      29.334  23.712  46.548  1.00  0.00    -0.027 A 
ATOM      7  C   UNL     1      30.690  23.995  46.758  1.00  0.00     0.008 A 
ATOM      8  C   UNL     1      28.482  24.741  46.105  1.00  0.00     0.045 A 
ATOM      9  C   UNL     1      31.186  25.286  46.565  1.00  0.00     0.026 A 
ATOM     10  C   UNL     1      28.995  26.037  45.915  1.00  0.00     0.052 A 
ATOM     11  C   UNL     1      28.833  22.311  46.768  1.00  0.00     0.046 C 
BRANCH   8  12
ATOM     12  N   UNL     1      27.116  24.485  45.837  1.00  0.00    -0.331 N 
ATOM     13  H   UNL     1      26.593  24.380  46.702  1.00  0.00     0.169 HD
BRANCH  12  14
ATOM     14  C   UNL     1      26.390  25.185  44.923  1.00  0.00     0.187 A 
ATOM     15  N   UNL     1      26.325  24.801  43.665  1.00  0.00    -0.220 NA
ATOM     16  S   UNL     1      25.506  26.631  45.260  1.00  0.00    -0.105 S 
ATOM     17  C   UNL     1      25.554  25.669  42.906  1.00  0.00     0.085 A 
ATOM     18  C   UNL     1      25.020  26.722  43.620  1.00  0.00     0.097 A 
BRANCH  17  19
ATOM     19  C   UNL     1      25.362  25.439  41.477  1.00  0.00     0.019 A 
ATOM     20  C   UNL     1      25.104  24.180  40.926  1.00  0.00     0.013 A 
ATOM     21  C   UNL     1      25.422  26.510  40.586  1.00  0.00     0.121 A 
ATOM     22  C   UNL     1      24.921  24.043  39.548  1.00  0.00     0.021 A 
ATOM     23  N   UNL     1      25.250  26.408  39.242  1.00  0.00    -0.264 NA
ATOM     24  C   UNL     1      25.002  25.176  38.756  1.00  0.00     0.111 A 
ENDBRANCH  17  19
ENDBRANCH  12  14
ENDBRANCH   8  12
ENDBRANCH   1   5
BRANCH   2  25
ATOM     25  C   UNL     1      31.603  29.875  46.436  1.00  0.00     0.040 A 
ATOM     26  C   UNL     1      33.001  29.884  46.399  1.00  0.00     0.014 A 
ATOM     27  C   UNL     1      30.889  31.017  46.051  1.00  0.00     0.014 A 
ATOM     28  C   UNL     1      33.680  31.017  45.948  1.00  0.00     0.006 A 
ATOM     29  C   UNL     1      31.573  32.151  45.603  1.00  0.00     0.006 A 
ATOM     30  C   UNL     1      32.974  32.157  45.535  1.00  0.00    -0.034 A 
BRANCH  30  31
ATOM     31  C   UNL     1      33.717  33.393  45.061  1.00  0.00     0.120 C 
BRANCH  31  32
ATOM     32  N   UNL     1      33.359  33.779  43.684  1.00  0.00    -0.297 NA
ATOM     33  C   UNL     1      32.094  33.137  43.281  1.00  0.00     0.100 C 
ATOM     34  C   UNL     1      34.424  33.411  42.719  1.00  0.00     0.100 C 
ATOM     35  C   UNL     1      32.154  31.597  43.087  1.00  0.00     0.099 C 
ATOM     36  C   UNL     1      34.234  32.070  41.958  1.00  0.00     0.099 C 
ATOM     37  N   UNL     1      33.495  31.079  42.750  1.00  0.00    -0.304 NA
ATOM     38  C   UNL     1      33.411  29.791  42.070  1.00  0.00     0.105 C 
ENDBRANCH  31  32
ENDBRANCH  30  31
ENDBRANCH   2  25
TORSDOF 7
ENDMDL
