MODEL 1
REMARK VINA RESULT:    -8.265      0.000      0.000
REMARK INTER + INTRA:          -9.885
REMARK INTER:                  -9.714
REMARK INTRA:                  -0.170
REMARK UNBOUND:                -0.170
REMARK SMILES CN1C(N)=N[C@](C)(c2cc(NC(=O)c3ccc(F)cn3)ccc2F)CS1(=O)=O
REMARK SMILES IDX 8 1 9 2 10 3 21 4 22 5 23 6 24 7 6 8 25 9 5 10 26 11 3 12
REMARK SMILES IDX 27 13 2 14 28 15 4 16 7 17 1 18 11 21 12 22 13 23 14 25
REMARK SMILES IDX 20 26 15 27 19 28 16 29 17 30 18 31
REMARK H PARENT 4 19 4 20 11 24
ROOT
ATOM      1  C   UNL     1      24.086  12.687  20.798  1.00  0.00     0.018 A 
ATOM      2  C   UNL     1      23.551  12.402  22.053  1.00  0.00     0.035 A 
ATOM      3  C   UNL     1      22.719  11.328  22.272  1.00  0.00     0.042 A 
ATOM      4  C   UNL     1      22.361  10.490  21.224  1.00  0.00     0.029 A 
ATOM      5  C   UNL     1      22.885  10.756  19.971  1.00  0.00     0.042 A 
ATOM      6  C   UNL     1      23.744  11.819  19.773  1.00  0.00     0.129 A 
ATOM      7  F   UNL     1      24.268  12.040  18.540  1.00  0.00    -0.207 F 
ENDROOT
BRANCH   1   8
ATOM      8  C   UNL     1      25.006  13.880  20.588  1.00  0.00     0.105 C 
ATOM      9  C   UNL     1      26.342  13.556  19.959  1.00  0.00     0.195 C 
ATOM     10  N   UNL     1      25.202  14.644  21.819  1.00  0.00    -0.240 NA
ATOM     11  S   UNL     1      27.295  12.499  21.020  1.00  0.00     0.239 S 
ATOM     12  C   UNL     1      26.061  14.277  22.720  1.00  0.00     0.205 C 
ATOM     13  O   UNL     1      28.691  12.766  20.725  1.00  0.00    -0.206 OA
ATOM     14  N   UNL     1      26.957  13.196  22.557  1.00  0.00    -0.243 N 
ATOM     15  O   UNL     1      26.728  11.189  21.106  1.00  0.00    -0.206 OA
ATOM     16  N   UNL     1      26.192  14.932  23.915  1.00  0.00    -0.369 N 
ATOM     17  C   UNL     1      24.309  14.886  19.668  1.00  0.00     0.044 C 
ATOM     18  C   UNL     1      27.840  12.714  23.637  1.00  0.00     0.167 C 
ATOM     19  H   UNL     1      25.612  15.700  24.121  1.00  0.00     0.159 HD
ATOM     20  H   UNL     1      26.867  14.636  24.567  1.00  0.00     0.159 HD
ENDBRANCH   1   8
BRANCH   3  21
ATOM     21  N   UNL     1      22.248  11.155  23.581  1.00  0.00    -0.321 N 
ATOM     22  C   UNL     1      22.941  11.311  24.768  1.00  0.00     0.274 C 
ATOM     23  O   UNL     1      24.146  11.507  24.861  1.00  0.00    -0.267 OA
ATOM     24  H   UNL     1      21.304  10.890  23.665  1.00  0.00     0.170 HD
BRANCH  22  25
ATOM     25  C   UNL     1      22.110  11.263  25.996  1.00  0.00     0.128 A 
ATOM     26  N   UNL     1      22.602  11.893  27.069  1.00  0.00    -0.248 NA
ATOM     27  C   UNL     1      20.895  10.601  25.984  1.00  0.00     0.037 A 
ATOM     28  C   UNL     1      21.869  11.860  28.194  1.00  0.00     0.151 A 
ATOM     29  C   UNL     1      20.161  10.590  27.156  1.00  0.00     0.043 A 
ATOM     30  C   UNL     1      20.652  11.223  28.282  1.00  0.00     0.141 A 
ATOM     31  F   UNL     1      19.971  11.246  29.440  1.00  0.00    -0.205 F 
ENDBRANCH  22  25
ENDBRANCH   3  21
TORSDOF 3
ENDMDL
MODEL 2
REMARK VINA RESULT:    -7.981      1.877      2.340
REMARK INTER + INTRA:          -9.551
REMARK INTER:                  -9.214
REMARK INTRA:                  -0.336
REMARK UNBOUND:                -0.170
REMARK SMILES CN1C(N)=N[C@](C)(c2cc(NC(=O)c3ccc(F)cn3)ccc2F)CS1(=O)=O
REMARK SMILES IDX 8 1 9 2 10 3 21 4 22 5 23 6 24 7 6 8 25 9 5 10 26 11 3 12
REMARK SMILES IDX 27 13 2 14 28 15 4 16 7 17 1 18 11 21 12 22 13 23 14 25
REMARK SMILES IDX 20 26 15 27 19 28 16 29 17 30 18 31
REMARK H PARENT 4 19 4 20 11 24
ROOT
ATOM      1  C   UNL     1      25.425  13.361  20.577  1.00  0.00     0.018 A 
ATOM      2  C   UNL     1      24.812  12.798  21.695  1.00  0.00     0.035 A 
ATOM      3  C   UNL     1      23.478  12.459  21.711  1.00  0.00     0.042 A 
ATOM      4  C   UNL     1      22.679  12.693  20.599  1.00  0.00     0.029 A 
ATOM      5  C   UNL     1      23.272  13.247  19.478  1.00  0.00     0.042 A 
ATOM      6  C   UNL     1      24.619  13.552  19.465  1.00  0.00     0.129 A 
ATOM      7  F   UNL     1      25.182  14.069  18.343  1.00  0.00    -0.207 F 
ENDROOT
BRANCH   1   8
ATOM      8  C   UNL     1      26.902  13.721  20.589  1.00  0.00     0.105 C 
ATOM      9  C   UNL     1      27.673  13.306  19.356  1.00  0.00     0.195 C 
ATOM     10  N   UNL     1      27.576  13.233  21.791  1.00  0.00    -0.240 NA
ATOM     11  S   UNL     1      27.695  11.538  19.196  1.00  0.00     0.239 S 
ATOM     12  C   UNL     1      27.985  12.006  21.892  1.00  0.00     0.205 C 
ATOM     13  O   UNL     1      28.909  11.203  18.475  1.00  0.00    -0.206 OA
ATOM     14  N   UNL     1      27.930  11.070  20.836  1.00  0.00    -0.243 N 
ATOM     15  O   UNL     1      26.401  11.022  18.875  1.00  0.00    -0.206 OA
ATOM     16  N   UNL     1      28.537  11.512  23.044  1.00  0.00    -0.369 N 
ATOM     17  C   UNL     1      27.039  15.241  20.713  1.00  0.00     0.044 C 
ATOM     18  C   UNL     1      28.283   9.646  21.003  1.00  0.00     0.167 C 
ATOM     19  H   UNL     1      28.619  12.090  23.837  1.00  0.00     0.159 HD
ATOM     20  H   UNL     1      28.853  10.580  23.079  1.00  0.00     0.159 HD
ENDBRANCH   1   8
BRANCH   3  21
ATOM     21  N   UNL     1      22.985  11.904  22.900  1.00  0.00    -0.321 N 
ATOM     22  C   UNL     1      22.508  12.562  24.019  1.00  0.00     0.274 C 
ATOM     23  O   UNL     1      22.561  13.771  24.202  1.00  0.00    -0.267 OA
ATOM     24  H   UNL     1      22.978  10.921  22.943  1.00  0.00     0.170 HD
BRANCH  22  25
ATOM     25  C   UNL     1      21.859  11.696  25.034  1.00  0.00     0.128 A 
ATOM     26  N   UNL     1      21.186  12.322  26.005  1.00  0.00    -0.248 NA
ATOM     27  C   UNL     1      21.963  10.319  24.935  1.00  0.00     0.037 A 
ATOM     28  C   UNL     1      20.593  11.558  26.937  1.00  0.00     0.151 A 
ATOM     29  C   UNL     1      21.336   9.559  25.907  1.00  0.00     0.043 A 
ATOM     30  C   UNL     1      20.644  10.183  26.928  1.00  0.00     0.141 A 
ATOM     31  F   UNL     1      20.013   9.487  27.888  1.00  0.00    -0.205 F 
ENDBRANCH  22  25
ENDBRANCH   3  21
TORSDOF 3
ENDMDL
MODEL 3
REMARK VINA RESULT:    -7.969      7.446     10.741
REMARK INTER + INTRA:          -9.537
REMARK INTER:                  -9.267
REMARK INTRA:                  -0.271
REMARK UNBOUND:                -0.170
REMARK SMILES CN1C(N)=N[C@](C)(c2cc(NC(=O)c3ccc(F)cn3)ccc2F)CS1(=O)=O
REMARK SMILES IDX 8 1 9 2 10 3 21 4 22 5 23 6 24 7 6 8 25 9 5 10 26 11 3 12
REMARK SMILES IDX 27 13 2 14 28 15 4 16 7 17 1 18 11 21 12 22 13 23 14 25
REMARK SMILES IDX 20 26 15 27 19 28 16 29 17 30 18 31
REMARK H PARENT 4 19 4 20 11 24
ROOT
ATOM      1  C   UNL     1      22.560   8.822  16.669  1.00  0.00     0.018 A 
ATOM      2  C   UNL     1      23.785   8.309  16.245  1.00  0.00     0.035 A 
ATOM      3  C   UNL     1      24.949   9.041  16.299  1.00  0.00     0.042 A 
ATOM      4  C   UNL     1      24.935  10.349  16.768  1.00  0.00     0.029 A 
ATOM      5  C   UNL     1      23.729  10.874  17.197  1.00  0.00     0.042 A 
ATOM      6  C   UNL     1      22.575  10.116  17.166  1.00  0.00     0.129 A 
ATOM      7  F   UNL     1      21.410  10.645  17.620  1.00  0.00    -0.207 F 
ENDROOT
BRANCH   1   8
ATOM      8  C   UNL     1      21.291   7.986  16.599  1.00  0.00     0.105 C 
ATOM      9  C   UNL     1      20.474   7.954  17.872  1.00  0.00     0.195 C 
ATOM     10  N   UNL     1      21.556   6.624  16.138  1.00  0.00    -0.240 NA
ATOM     11  S   UNL     1      21.388   7.184  19.184  1.00  0.00     0.239 S 
ATOM     12  C   UNL     1      21.990   5.704  16.943  1.00  0.00     0.205 C 
ATOM     13  O   UNL     1      20.409   6.603  20.085  1.00  0.00    -0.206 OA
ATOM     14  N   UNL     1      22.134   5.884  18.337  1.00  0.00    -0.243 N 
ATOM     15  O   UNL     1      22.488   7.993  19.606  1.00  0.00    -0.206 OA
ATOM     16  N   UNL     1      22.326   4.451  16.507  1.00  0.00    -0.369 N 
ATOM     17  C   UNL     1      20.387   8.551  15.500  1.00  0.00     0.044 C 
ATOM     18  C   UNL     1      22.746   4.871  19.220  1.00  0.00     0.167 C 
ATOM     19  H   UNL     1      22.259   4.228  15.550  1.00  0.00     0.159 HD
ATOM     20  H   UNL     1      22.635   3.772  17.150  1.00  0.00     0.159 HD
ENDBRANCH   1   8
BRANCH   3  21
ATOM     21  N   UNL     1      26.111   8.409  15.839  1.00  0.00    -0.321 N 
ATOM     22  C   UNL     1      27.312   8.233  16.503  1.00  0.00     0.274 C 
ATOM     23  O   UNL     1      27.598   8.731  17.584  1.00  0.00    -0.267 OA
ATOM     24  H   UNL     1      26.067   8.041  14.926  1.00  0.00     0.170 HD
BRANCH  22  25
ATOM     25  C   UNL     1      28.283   7.337  15.829  1.00  0.00     0.128 A 
ATOM     26  N   UNL     1      29.496   7.846  15.595  1.00  0.00    -0.248 NA
ATOM     27  C   UNL     1      27.912   6.047  15.490  1.00  0.00     0.037 A 
ATOM     28  C   UNL     1      30.392   7.054  14.983  1.00  0.00     0.151 A 
ATOM     29  C   UNL     1      28.858   5.254  14.866  1.00  0.00     0.043 A 
ATOM     30  C   UNL     1      30.116   5.761  14.602  1.00  0.00     0.141 A 
ATOM     31  F   UNL     1      31.069   5.025  14.006  1.00  0.00    -0.205 F 
ENDBRANCH  22  25
ENDBRANCH   3  21
TORSDOF 3
ENDMDL
MODEL 4
REMARK VINA RESULT:    -7.901      2.528      3.855
REMARK INTER + INTRA:          -9.457
REMARK INTER:                  -9.028
REMARK INTRA:                  -0.429
REMARK UNBOUND:                -0.170
REMARK SMILES CN1C(N)=N[C@](C)(c2cc(NC(=O)c3ccc(F)cn3)ccc2F)CS1(=O)=O
REMARK SMILES IDX 8 1 9 2 10 3 21 4 22 5 23 6 24 7 6 8 25 9 5 10 26 11 3 12
REMARK SMILES IDX 27 13 2 14 28 15 4 16 7 17 1 18 11 21 12 22 13 23 14 25
REMARK SMILES IDX 20 26 15 27 19 28 16 29 17 30 18 31
REMARK H PARENT 4 19 4 20 11 24
ROOT
ATOM      1  C   UNL     1      26.448  12.783  21.957  1.00  0.00     0.018 A 
ATOM      2  C   UNL     1      25.514  12.318  22.883  1.00  0.00     0.035 A 
ATOM      3  C   UNL     1      25.336  12.914  24.111  1.00  0.00     0.042 A 
ATOM      4  C   UNL     1      26.111  14.005  24.483  1.00  0.00     0.029 A 
ATOM      5  C   UNL     1      27.041  14.482  23.576  1.00  0.00     0.042 A 
ATOM      6  C   UNL     1      27.186  13.894  22.334  1.00  0.00     0.129 A 
ATOM      7  F   UNL     1      28.085  14.400  21.451  1.00  0.00    -0.207 F 
ENDROOT
BRANCH   1   8
ATOM      8  C   UNL     1      26.619  12.105  20.607  1.00  0.00     0.105 C 
ATOM      9  C   UNL     1      26.479  13.018  19.409  1.00  0.00     0.195 C 
ATOM     10  N   UNL     1      25.740  10.946  20.459  1.00  0.00    -0.240 NA
ATOM     11  S   UNL     1      24.837  13.684  19.317  1.00  0.00     0.239 S 
ATOM     12  C   UNL     1      24.495  11.074  20.117  1.00  0.00     0.205 C 
ATOM     13  O   UNL     1      24.579  13.958  17.914  1.00  0.00    -0.206 OA
ATOM     14  N   UNL     1      23.905  12.302  19.745  1.00  0.00    -0.243 N 
ATOM     15  O   UNL     1      24.582  14.610  20.376  1.00  0.00    -0.206 OA
ATOM     16  N   UNL     1      23.640  10.006  20.062  1.00  0.00    -0.369 N 
ATOM     17  C   UNL     1      28.018  11.486  20.538  1.00  0.00     0.044 C 
ATOM     18  C   UNL     1      22.460  12.452  19.479  1.00  0.00     0.167 C 
ATOM     19  H   UNL     1      23.959   9.107  20.303  1.00  0.00     0.159 HD
ATOM     20  H   UNL     1      22.705  10.138  19.780  1.00  0.00     0.159 HD
ENDBRANCH   1   8
BRANCH   3  21
ATOM     21  N   UNL     1      24.367  12.347  24.949  1.00  0.00    -0.321 N 
ATOM     22  C   UNL     1      23.025  12.670  25.049  1.00  0.00     0.274 C 
ATOM     23  O   UNL     1      22.486  13.619  24.495  1.00  0.00    -0.267 OA
ATOM     24  H   UNL     1      24.680  11.625  25.541  1.00  0.00     0.170 HD
BRANCH  22  25
ATOM     25  C   UNL     1      22.211  11.747  25.876  1.00  0.00     0.128 A 
ATOM     26  N   UNL     1      22.137  12.028  27.181  1.00  0.00    -0.248 NA
ATOM     27  C   UNL     1      21.572  10.671  25.285  1.00  0.00     0.037 A 
ATOM     28  C   UNL     1      21.409  11.203  27.951  1.00  0.00     0.151 A 
ATOM     29  C   UNL     1      20.825   9.842  26.103  1.00  0.00     0.043 A 
ATOM     30  C   UNL     1      20.742  10.105  27.457  1.00  0.00     0.141 A 
ATOM     31  F   UNL     1      20.021   9.335  28.289  1.00  0.00    -0.205 F 
ENDBRANCH  22  25
ENDBRANCH   3  21
TORSDOF 3
ENDMDL
MODEL 5
REMARK VINA RESULT:    -7.665      2.569      3.809
REMARK INTER + INTRA:          -9.180
REMARK INTER:                  -8.797
REMARK INTRA:                  -0.382
REMARK UNBOUND:                -0.170
REMARK SMILES CN1C(N)=N[C@](C)(c2cc(NC(=O)c3ccc(F)cn3)ccc2F)CS1(=O)=O
REMARK SMILES IDX 8 1 9 2 10 3 21 4 22 5 23 6 24 7 6 8 25 9 5 10 26 11 3 12
REMARK SMILES IDX 27 13 2 14 28 15 4 16 7 17 1 18 11 21 12 22 13 23 14 25
REMARK SMILES IDX 20 26 15 27 19 28 16 29 17 30 18 31
REMARK H PARENT 4 19 4 20 11 24
ROOT
ATOM      1  C   UNL     1      27.621  14.040  21.753  1.00  0.00     0.018 A 
ATOM      2  C   UNL     1      26.722  13.299  22.519  1.00  0.00     0.035 A 
ATOM      3  C   UNL     1      25.397  13.649  22.644  1.00  0.00     0.042 A 
ATOM      4  C   UNL     1      24.909  14.788  22.016  1.00  0.00     0.029 A 
ATOM      5  C   UNL     1      25.785  15.534  21.248  1.00  0.00     0.042 A 
ATOM      6  C   UNL     1      27.105  15.153  21.106  1.00  0.00     0.129 A 
ATOM      7  F   UNL     1      27.938  15.886  20.323  1.00  0.00    -0.207 F 
ENDROOT
BRANCH   1   8
ATOM      8  C   UNL     1      29.079  13.625  21.632  1.00  0.00     0.105 C 
ATOM      9  C   UNL     1      29.592  13.492  20.216  1.00  0.00     0.195 C 
ATOM     10  N   UNL     1      29.367  12.406  22.387  1.00  0.00    -0.240 NA
ATOM     11  S   UNL     1      28.735  12.196  19.357  1.00  0.00     0.239 S 
ATOM     12  C   UNL     1      29.103  11.230  21.908  1.00  0.00     0.205 C 
ATOM     13  O   UNL     1      29.649  11.693  18.348  1.00  0.00    -0.206 OA
ATOM     14  N   UNL     1      28.634  11.003  20.594  1.00  0.00    -0.243 N 
ATOM     15  O   UNL     1      27.371  12.543  19.105  1.00  0.00    -0.206 OA
ATOM     16  N   UNL     1      29.285  10.086  22.637  1.00  0.00    -0.369 N 
ATOM     17  C   UNL     1      29.951  14.674  22.329  1.00  0.00     0.044 C 
ATOM     18  C   UNL     1      28.222   9.673  20.106  1.00  0.00     0.167 C 
ATOM     19  H   UNL     1      29.610  10.141  23.565  1.00  0.00     0.159 HD
ATOM     20  H   UNL     1      29.092   9.208  22.235  1.00  0.00     0.159 HD
ENDBRANCH   1   8
BRANCH   3  21
ATOM     21  N   UNL     1      24.601  12.821  23.446  1.00  0.00    -0.321 N 
ATOM     22  C   UNL     1      23.962  13.133  24.632  1.00  0.00     0.274 C 
ATOM     23  O   UNL     1      24.099  14.180  25.252  1.00  0.00    -0.267 OA
ATOM     24  H   UNL     1      24.482  11.898  23.124  1.00  0.00     0.170 HD
BRANCH  22  25
ATOM     25  C   UNL     1      23.020  12.104  25.135  1.00  0.00     0.128 A 
ATOM     26  N   UNL     1      22.484  12.328  26.339  1.00  0.00    -0.248 NA
ATOM     27  C   UNL     1      22.734  10.993  24.360  1.00  0.00     0.037 A 
ATOM     28  C   UNL     1      21.631  11.406  26.816  1.00  0.00     0.151 A 
ATOM     29  C   UNL     1      21.847  10.065  24.877  1.00  0.00     0.043 A 
ATOM     30  C   UNL     1      21.289  10.267  26.124  1.00  0.00     0.141 A 
ATOM     31  F   UNL     1      20.416   9.398  26.663  1.00  0.00    -0.205 F 
ENDBRANCH  22  25
ENDBRANCH   3  21
TORSDOF 3
ENDMDL
MODEL 6
REMARK VINA RESULT:    -7.651      4.845      7.192
REMARK INTER + INTRA:          -9.162
REMARK INTER:                  -8.931
REMARK INTRA:                  -0.231
REMARK UNBOUND:                -0.170
REMARK SMILES CN1C(N)=N[C@](C)(c2cc(NC(=O)c3ccc(F)cn3)ccc2F)CS1(=O)=O
REMARK SMILES IDX 8 1 9 2 10 3 21 4 22 5 23 6 24 7 6 8 25 9 5 10 26 11 3 12
REMARK SMILES IDX 27 13 2 14 28 15 4 16 7 17 1 18 11 21 12 22 13 23 14 25
REMARK SMILES IDX 20 26 15 27 19 28 16 29 17 30 18 31
REMARK H PARENT 4 19 4 20 11 24
ROOT
ATOM      1  C   UNL     1      23.681  12.128  20.167  1.00  0.00     0.018 A 
ATOM      2  C   UNL     1      23.230  10.843  19.871  1.00  0.00     0.035 A 
ATOM      3  C   UNL     1      22.638  10.034  20.815  1.00  0.00     0.042 A 
ATOM      4  C   UNL     1      22.490  10.474  22.124  1.00  0.00     0.029 A 
ATOM      5  C   UNL     1      22.929  11.749  22.435  1.00  0.00     0.042 A 
ATOM      6  C   UNL     1      23.491  12.561  21.470  1.00  0.00     0.129 A 
ATOM      7  F   UNL     1      23.887  13.819  21.795  1.00  0.00    -0.207 F 
ENDROOT
BRANCH   1   8
ATOM      8  C   UNL     1      24.327  12.999  19.101  1.00  0.00     0.105 C 
ATOM      9  C   UNL     1      23.690  14.357  18.909  1.00  0.00     0.195 C 
ATOM     10  N   UNL     1      24.431  12.307  17.817  1.00  0.00    -0.240 NA
ATOM     11  S   UNL     1      22.020  14.190  18.330  1.00  0.00     0.239 S 
ATOM     12  C   UNL     1      23.428  12.236  16.998  1.00  0.00     0.205 C 
ATOM     13  O   UNL     1      21.724  15.391  17.570  1.00  0.00    -0.206 OA
ATOM     14  N   UNL     1      22.199  12.903  17.201  1.00  0.00    -0.243 N 
ATOM     15  O   UNL     1      21.165  13.645  19.338  1.00  0.00    -0.206 OA
ATOM     16  N   UNL     1      23.484  11.518  15.834  1.00  0.00    -0.369 N 
ATOM     17  C   UNL     1      25.791  13.240  19.480  1.00  0.00     0.044 C 
ATOM     18  C   UNL     1      21.025  12.713  16.325  1.00  0.00     0.167 C 
ATOM     19  H   UNL     1      24.300  11.018  15.603  1.00  0.00     0.159 HD
ATOM     20  H   UNL     1      22.708  11.501  15.227  1.00  0.00     0.159 HD
ENDBRANCH   1   8
BRANCH   3  21
ATOM     21  N   UNL     1      22.232   8.764  20.387  1.00  0.00    -0.321 N 
ATOM     22  C   UNL     1      21.489   8.433  19.267  1.00  0.00     0.274 C 
ATOM     23  O   UNL     1      20.947   9.237  18.519  1.00  0.00    -0.267 OA
ATOM     24  H   UNL     1      22.510   8.010  20.956  1.00  0.00     0.170 HD
BRANCH  22  25
ATOM     25  C   UNL     1      21.401   6.983  18.971  1.00  0.00     0.128 A 
ATOM     26  N   UNL     1      20.170   6.480  18.830  1.00  0.00    -0.248 NA
ATOM     27  C   UNL     1      22.557   6.232  18.846  1.00  0.00     0.037 A 
ATOM     28  C   UNL     1      20.065   5.167  18.566  1.00  0.00     0.151 A 
ATOM     29  C   UNL     1      22.417   4.884  18.568  1.00  0.00     0.043 A 
ATOM     30  C   UNL     1      21.155   4.338  18.429  1.00  0.00     0.141 A 
ATOM     31  F   UNL     1      20.970   3.036  18.150  1.00  0.00    -0.205 F 
ENDBRANCH  22  25
ENDBRANCH   3  21
TORSDOF 3
ENDMDL
MODEL 7
REMARK VINA RESULT:    -7.254      4.173      6.477
REMARK INTER + INTRA:          -8.697
REMARK INTER:                  -8.309
REMARK INTRA:                  -0.387
REMARK UNBOUND:                -0.170
REMARK SMILES CN1C(N)=N[C@](C)(c2cc(NC(=O)c3ccc(F)cn3)ccc2F)CS1(=O)=O
REMARK SMILES IDX 8 1 9 2 10 3 21 4 22 5 23 6 24 7 6 8 25 9 5 10 26 11 3 12
REMARK SMILES IDX 27 13 2 14 28 15 4 16 7 17 1 18 11 21 12 22 13 23 14 25
REMARK SMILES IDX 20 26 15 27 19 28 16 29 17 30 18 31
REMARK H PARENT 4 19 4 20 11 24
ROOT
ATOM      1  C   UNL     1      25.007  11.748  21.227  1.00  0.00     0.018 A 
ATOM      2  C   UNL     1      24.480  10.516  20.843  1.00  0.00     0.035 A 
ATOM      3  C   UNL     1      23.172  10.166  21.090  1.00  0.00     0.042 A 
ATOM      4  C   UNL     1      22.325  11.037  21.763  1.00  0.00     0.029 A 
ATOM      5  C   UNL     1      22.831  12.266  22.149  1.00  0.00     0.042 A 
ATOM      6  C   UNL     1      24.136  12.617  21.866  1.00  0.00     0.129 A 
ATOM      7  F   UNL     1      24.599  13.841  22.229  1.00  0.00    -0.207 F 
ENDROOT
BRANCH   1   8
ATOM      8  C   UNL     1      26.456  12.107  20.936  1.00  0.00     0.105 C 
ATOM      9  C   UNL     1      26.654  13.371  20.130  1.00  0.00     0.195 C 
ATOM     10  N   UNL     1      27.182  10.999  20.318  1.00  0.00    -0.240 NA
ATOM     11  S   UNL     1      25.952  13.198  18.509  1.00  0.00     0.239 S 
ATOM     12  C   UNL     1      27.100  10.755  19.046  1.00  0.00     0.205 C 
ATOM     13  O   UNL     1      26.708  14.077  17.635  1.00  0.00    -0.206 OA
ATOM     14  N   UNL     1      26.414  11.583  18.130  1.00  0.00    -0.243 N 
ATOM     15  O   UNL     1      24.524  13.144  18.555  1.00  0.00    -0.206 OA
ATOM     16  N   UNL     1      27.703   9.670  18.469  1.00  0.00    -0.369 N 
ATOM     17  C   UNL     1      27.193  12.301  22.264  1.00  0.00     0.044 C 
ATOM     18  C   UNL     1      26.224  11.228  16.710  1.00  0.00     0.167 C 
ATOM     19  H   UNL     1      28.207   9.033  19.026  1.00  0.00     0.159 HD
ATOM     20  H   UNL     1      27.634   9.527  17.498  1.00  0.00     0.159 HD
ENDBRANCH   1   8
BRANCH   3  21
ATOM     21  N   UNL     1      22.769   8.897  20.654  1.00  0.00    -0.321 N 
ATOM     22  C   UNL     1      21.958   8.577  19.579  1.00  0.00     0.274 C 
ATOM     23  O   UNL     1      21.344   9.385  18.895  1.00  0.00    -0.267 OA
ATOM     24  H   UNL     1      23.106   8.135  21.180  1.00  0.00     0.170 HD
BRANCH  22  25
ATOM     25  C   UNL     1      21.887   7.133  19.247  1.00  0.00     0.128 A 
ATOM     26  N   UNL     1      21.004   6.408  19.942  1.00  0.00    -0.248 NA
ATOM     27  C   UNL     1      22.702   6.611  18.258  1.00  0.00     0.037 A 
ATOM     28  C   UNL     1      20.924   5.097  19.661  1.00  0.00     0.151 A 
ATOM     29  C   UNL     1      22.592   5.258  17.988  1.00  0.00     0.043 A 
ATOM     30  C   UNL     1      21.696   4.485  18.700  1.00  0.00     0.141 A 
ATOM     31  F   UNL     1      21.548   3.169  18.467  1.00  0.00    -0.205 F 
ENDBRANCH  22  25
ENDBRANCH   3  21
TORSDOF 3
ENDMDL
MODEL 8
REMARK VINA RESULT:    -7.244      2.172      2.788
REMARK INTER + INTRA:          -8.685
REMARK INTER:                  -9.010
REMARK INTRA:                   0.325
REMARK UNBOUND:                -0.170
REMARK SMILES CN1C(N)=N[C@](C)(c2cc(NC(=O)c3ccc(F)cn3)ccc2F)CS1(=O)=O
REMARK SMILES IDX 8 1 9 2 10 3 21 4 22 5 23 6 24 7 6 8 25 9 5 10 26 11 3 12
REMARK SMILES IDX 27 13 2 14 28 15 4 16 7 17 1 18 11 21 12 22 13 23 14 25
REMARK SMILES IDX 20 26 15 27 19 28 16 29 17 30 18 31
REMARK H PARENT 4 19 4 20 11 24
ROOT
ATOM      1  C   UNL     1      26.047  12.328  21.169  1.00  0.00     0.018 A 
ATOM      2  C   UNL     1      25.210  11.944  22.216  1.00  0.00     0.035 A 
ATOM      3  C   UNL     1      23.848  12.136  22.178  1.00  0.00     0.042 A 
ATOM      4  C   UNL     1      23.254  12.752  21.083  1.00  0.00     0.029 A 
ATOM      5  C   UNL     1      24.069  13.137  20.033  1.00  0.00     0.042 A 
ATOM      6  C   UNL     1      25.430  12.909  20.071  1.00  0.00     0.129 A 
ATOM      7  F   UNL     1      26.203  13.270  19.014  1.00  0.00    -0.207 F 
ENDROOT
BRANCH   1   8
ATOM      8  C   UNL     1      27.549  12.099  21.239  1.00  0.00     0.105 C 
ATOM      9  C   UNL     1      28.118  12.004  22.637  1.00  0.00     0.195 C 
ATOM     10  N   UNL     1      28.292  13.090  20.461  1.00  0.00    -0.240 NA
ATOM     11  S   UNL     1      27.906  13.537  23.506  1.00  0.00     0.239 S 
ATOM     12  C   UNL     1      28.557  14.268  20.934  1.00  0.00     0.205 C 
ATOM     13  O   UNL     1      28.981  13.612  24.480  1.00  0.00    -0.206 OA
ATOM     14  N   UNL     1      28.269  14.666  22.259  1.00  0.00    -0.243 N 
ATOM     15  O   UNL     1      26.531  13.788  23.806  1.00  0.00    -0.206 OA
ATOM     16  N   UNL     1      29.174  15.234  20.186  1.00  0.00    -0.369 N 
ATOM     17  C   UNL     1      27.882  10.785  20.527  1.00  0.00     0.044 C 
ATOM     18  C   UNL     1      28.464  16.047  22.744  1.00  0.00     0.167 C 
ATOM     19  H   UNL     1      29.415  15.052  19.249  1.00  0.00     0.159 HD
ATOM     20  H   UNL     1      29.376  16.112  20.584  1.00  0.00     0.159 HD
ENDBRANCH   1   8
BRANCH   3  21
ATOM     21  N   UNL     1      23.122  11.707  23.297  1.00  0.00    -0.321 N 
ATOM     22  C   UNL     1      22.503  12.478  24.264  1.00  0.00     0.274 C 
ATOM     23  O   UNL     1      22.603  13.694  24.366  1.00  0.00    -0.267 OA
ATOM     24  H   UNL     1      23.043  10.732  23.409  1.00  0.00     0.170 HD
BRANCH  22  25
ATOM     25  C   UNL     1      21.633  11.733  25.207  1.00  0.00     0.128 A 
ATOM     26  N   UNL     1      20.734  12.456  25.882  1.00  0.00    -0.248 NA
ATOM     27  C   UNL     1      21.774  10.362  25.340  1.00  0.00     0.037 A 
ATOM     28  C   UNL     1      19.938  11.804  26.745  1.00  0.00     0.151 A 
ATOM     29  C   UNL     1      20.935   9.718  26.233  1.00  0.00     0.043 A 
ATOM     30  C   UNL     1      20.006  10.445  26.951  1.00  0.00     0.141 A 
ATOM     31  F   UNL     1      19.164   9.861  27.821  1.00  0.00    -0.205 F 
ENDBRANCH  22  25
ENDBRANCH   3  21
TORSDOF 3
ENDMDL
MODEL 9
REMARK VINA RESULT:    -7.237      4.280      5.814
REMARK INTER + INTRA:          -8.676
REMARK INTER:                  -9.166
REMARK INTRA:                   0.490
REMARK UNBOUND:                -0.170
REMARK SMILES CN1C(N)=N[C@](C)(c2cc(NC(=O)c3ccc(F)cn3)ccc2F)CS1(=O)=O
REMARK SMILES IDX 8 1 9 2 10 3 21 4 22 5 23 6 24 7 6 8 25 9 5 10 26 11 3 12
REMARK SMILES IDX 27 13 2 14 28 15 4 16 7 17 1 18 11 21 12 22 13 23 14 25
REMARK SMILES IDX 20 26 15 27 19 28 16 29 17 30 18 31
REMARK H PARENT 4 19 4 20 11 24
ROOT
ATOM      1  C   UNL     1      22.923   9.936  18.775  1.00  0.00     0.018 A 
ATOM      2  C   UNL     1      22.529   9.923  20.112  1.00  0.00     0.035 A 
ATOM      3  C   UNL     1      23.408  10.171  21.141  1.00  0.00     0.042 A 
ATOM      4  C   UNL     1      24.748  10.424  20.876  1.00  0.00     0.029 A 
ATOM      5  C   UNL     1      25.157  10.444  19.554  1.00  0.00     0.042 A 
ATOM      6  C   UNL     1      24.256  10.226  18.530  1.00  0.00     0.129 A 
ATOM      7  F   UNL     1      24.677  10.280  17.240  1.00  0.00    -0.207 F 
ENDROOT
BRANCH   1   8
ATOM      8  C   UNL     1      21.926   9.662  17.659  1.00  0.00     0.105 C 
ATOM      9  C   UNL     1      20.767   8.768  18.041  1.00  0.00     0.195 C 
ATOM     10  N   UNL     1      22.578   9.152  16.454  1.00  0.00    -0.240 NA
ATOM     11  S   UNL     1      21.343   7.144  18.471  1.00  0.00     0.239 S 
ATOM     12  C   UNL     1      22.898   7.901  16.330  1.00  0.00     0.205 C 
ATOM     13  O   UNL     1      20.256   6.228  18.175  1.00  0.00    -0.206 OA
ATOM     14  N   UNL     1      22.553   6.904  17.270  1.00  0.00    -0.243 N 
ATOM     15  O   UNL     1      22.076   7.152  19.698  1.00  0.00    -0.206 OA
ATOM     16  N   UNL     1      23.587   7.427  15.246  1.00  0.00    -0.369 N 
ATOM     17  C   UNL     1      21.331  10.992  17.190  1.00  0.00     0.044 C 
ATOM     18  C   UNL     1      23.031   5.510  17.177  1.00  0.00     0.167 C 
ATOM     19  H   UNL     1      23.872   8.046  14.535  1.00  0.00     0.159 HD
ATOM     20  H   UNL     1      23.797   6.467  15.177  1.00  0.00     0.159 HD
ENDBRANCH   1   8
BRANCH   3  21
ATOM     21  N   UNL     1      22.884  10.125  22.440  1.00  0.00    -0.321 N 
ATOM     22  C   UNL     1      22.929  11.103  23.417  1.00  0.00     0.274 C 
ATOM     23  O   UNL     1      23.564  12.146  23.341  1.00  0.00    -0.267 OA
ATOM     24  H   UNL     1      22.424   9.290  22.688  1.00  0.00     0.170 HD
BRANCH  22  25
ATOM     25  C   UNL     1      22.099  10.838  24.617  1.00  0.00     0.128 A 
ATOM     26  N   UNL     1      21.808   9.557  24.865  1.00  0.00    -0.248 NA
ATOM     27  C   UNL     1      21.680  11.889  25.414  1.00  0.00     0.037 A 
ATOM     28  C   UNL     1      21.053   9.292  25.945  1.00  0.00     0.151 A 
ATOM     29  C   UNL     1      20.909  11.584  26.522  1.00  0.00     0.043 A 
ATOM     30  C   UNL     1      20.585  10.269  26.793  1.00  0.00     0.141 A 
ATOM     31  F   UNL     1      19.847   9.924  27.862  1.00  0.00    -0.205 F 
ENDBRANCH  22  25
ENDBRANCH   3  21
TORSDOF 3
ENDMDL
MODEL 10
REMARK VINA RESULT:    -7.231      4.682      6.292
REMARK INTER + INTRA:          -8.669
REMARK INTER:                  -8.383
REMARK INTRA:                  -0.286
REMARK UNBOUND:                -0.170
REMARK SMILES CN1C(N)=N[C@](C)(c2cc(NC(=O)c3ccc(F)cn3)ccc2F)CS1(=O)=O
REMARK SMILES IDX 8 1 9 2 10 3 21 4 22 5 23 6 24 7 6 8 25 9 5 10 26 11 3 12
REMARK SMILES IDX 27 13 2 14 28 15 4 16 7 17 1 18 11 21 12 22 13 23 14 25
REMARK SMILES IDX 20 26 15 27 19 28 16 29 17 30 18 31
REMARK H PARENT 4 19 4 20 11 24
ROOT
ATOM      1  C   UNL     1      21.575   8.194  17.172  1.00  0.00     0.018 A 
ATOM      2  C   UNL     1      21.796   8.827  18.395  1.00  0.00     0.035 A 
ATOM      3  C   UNL     1      22.106   8.129  19.540  1.00  0.00     0.042 A 
ATOM      4  C   UNL     1      22.187   6.742  19.518  1.00  0.00     0.029 A 
ATOM      5  C   UNL     1      21.974   6.097  18.313  1.00  0.00     0.042 A 
ATOM      6  C   UNL     1      21.696   6.813  17.165  1.00  0.00     0.129 A 
ATOM      7  F   UNL     1      21.520   6.158  15.989  1.00  0.00    -0.207 F 
ENDROOT
BRANCH   1   8
ATOM      8  C   UNL     1      21.238   8.993  15.924  1.00  0.00     0.105 C 
ATOM      9  C   UNL     1      22.197   8.812  14.768  1.00  0.00     0.195 C 
ATOM     10  N   UNL     1      21.063  10.416  16.213  1.00  0.00    -0.240 NA
ATOM     11  S   UNL     1      23.814   9.405  15.198  1.00  0.00     0.239 S 
ATOM     12  C   UNL     1      22.077  11.218  16.323  1.00  0.00     0.205 C 
ATOM     13  O   UNL     1      24.447   9.816  13.957  1.00  0.00    -0.206 OA
ATOM     14  N   UNL     1      23.412  10.837  16.064  1.00  0.00    -0.243 N 
ATOM     15  O   UNL     1      24.437   8.574  16.180  1.00  0.00    -0.206 OA
ATOM     16  N   UNL     1      21.933  12.532  16.681  1.00  0.00    -0.369 N 
ATOM     17  C   UNL     1      19.852   8.572  15.426  1.00  0.00     0.044 C 
ATOM     18  C   UNL     1      24.565  11.725  16.313  1.00  0.00     0.167 C 
ATOM     19  H   UNL     1      21.040  12.892  16.882  1.00  0.00     0.159 HD
ATOM     20  H   UNL     1      22.724  13.117  16.737  1.00  0.00     0.159 HD
ENDBRANCH   1   8
BRANCH   3  21
ATOM     21  N   UNL     1      22.301   8.886  20.703  1.00  0.00    -0.321 N 
ATOM     22  C   UNL     1      23.283   9.827  20.958  1.00  0.00     0.274 C 
ATOM     23  O   UNL     1      24.240  10.061  20.232  1.00  0.00    -0.267 OA
ATOM     24  H   UNL     1      21.658   8.728  21.431  1.00  0.00     0.170 HD
BRANCH  22  25
ATOM     25  C   UNL     1      23.099  10.612  22.203  1.00  0.00     0.128 A 
ATOM     26  N   UNL     1      23.309   9.959  23.351  1.00  0.00    -0.248 NA
ATOM     27  C   UNL     1      22.741  11.947  22.131  1.00  0.00     0.037 A 
ATOM     28  C   UNL     1      23.144  10.649  24.492  1.00  0.00     0.151 A 
ATOM     29  C   UNL     1      22.585  12.631  23.324  1.00  0.00     0.043 A 
ATOM     30  C   UNL     1      22.784  11.977  24.524  1.00  0.00     0.141 A 
ATOM     31  F   UNL     1      22.653  12.603  25.706  1.00  0.00    -0.205 F 
ENDBRANCH  22  25
ENDBRANCH   3  21
TORSDOF 3
ENDMDL
MODEL 11
REMARK VINA RESULT:    -7.172      5.045      6.906
REMARK INTER + INTRA:          -8.600
REMARK INTER:                  -8.964
REMARK INTRA:                   0.363
REMARK UNBOUND:                -0.170
REMARK SMILES CN1C(N)=N[C@](C)(c2cc(NC(=O)c3ccc(F)cn3)ccc2F)CS1(=O)=O
REMARK SMILES IDX 8 1 9 2 10 3 21 4 22 5 23 6 24 7 6 8 25 9 5 10 26 11 3 12
REMARK SMILES IDX 27 13 2 14 28 15 4 16 7 17 1 18 11 21 12 22 13 23 14 25
REMARK SMILES IDX 20 26 15 27 19 28 16 29 17 30 18 31
REMARK H PARENT 4 19 4 20 11 24
ROOT
ATOM      1  C   UNL     1      22.740   9.142  17.372  1.00  0.00     0.018 A 
ATOM      2  C   UNL     1      22.679   9.545  18.705  1.00  0.00     0.035 A 
ATOM      3  C   UNL     1      23.751  10.119  19.350  1.00  0.00     0.042 A 
ATOM      4  C   UNL     1      24.958  10.297  18.686  1.00  0.00     0.029 A 
ATOM      5  C   UNL     1      25.036   9.906  17.361  1.00  0.00     0.042 A 
ATOM      6  C   UNL     1      23.942   9.361  16.717  1.00  0.00     0.129 A 
ATOM      7  F   UNL     1      24.035   9.013  15.408  1.00  0.00    -0.207 F 
ENDROOT
BRANCH   1   8
ATOM      8  C   UNL     1      21.536   8.514  16.686  1.00  0.00     0.105 C 
ATOM      9  C   UNL     1      20.558   7.825  17.612  1.00  0.00     0.195 C 
ATOM     10  N   UNL     1      21.930   7.608  15.608  1.00  0.00    -0.240 NA
ATOM     11  S   UNL     1      21.325   6.443  18.418  1.00  0.00     0.239 S 
ATOM     12  C   UNL     1      22.298   6.386  15.845  1.00  0.00     0.205 C 
ATOM     13  O   UNL     1      20.265   5.498  18.718  1.00  0.00    -0.206 OA
ATOM     14  N   UNL     1      22.244   5.783  17.121  1.00  0.00    -0.243 N 
ATOM     15  O   UNL     1      22.316   6.864  19.359  1.00  0.00    -0.206 OA
ATOM     16  N   UNL     1      22.753   5.556  14.856  1.00  0.00    -0.369 N 
ATOM     17  C   UNL     1      20.761   9.608  15.948  1.00  0.00     0.044 C 
ATOM     18  C   UNL     1      22.782   4.436  17.397  1.00  0.00     0.167 C 
ATOM     19  H   UNL     1      22.827   5.886  13.931  1.00  0.00     0.159 HD
ATOM     20  H   UNL     1      23.007   4.629  15.069  1.00  0.00     0.159 HD
ENDBRANCH   1   8
BRANCH   3  21
ATOM     21  N   UNL     1      23.559  10.476  20.691  1.00  0.00    -0.321 N 
ATOM     22  C   UNL     1      22.842  11.545  21.198  1.00  0.00     0.274 C 
ATOM     23  O   UNL     1      22.352  12.446  20.530  1.00  0.00    -0.267 OA
ATOM     24  H   UNL     1      23.989   9.893  21.357  1.00  0.00     0.170 HD
BRANCH  22  25
ATOM     25  C   UNL     1      22.647  11.536  22.669  1.00  0.00     0.128 A 
ATOM     26  N   UNL     1      22.474  10.337  23.236  1.00  0.00    -0.248 NA
ATOM     27  C   UNL     1      22.662  12.726  23.375  1.00  0.00     0.037 A 
ATOM     28  C   UNL     1      22.292  10.304  24.567  1.00  0.00     0.151 A 
ATOM     29  C   UNL     1      22.477  12.658  24.745  1.00  0.00     0.043 A 
ATOM     30  C   UNL     1      22.285  11.433  25.354  1.00  0.00     0.141 A 
ATOM     31  F   UNL     1      22.111  11.318  26.681  1.00  0.00    -0.205 F 
ENDBRANCH  22  25
ENDBRANCH   3  21
TORSDOF 3
ENDMDL
MODEL 12
REMARK VINA RESULT:    -7.156      2.344      3.301
REMARK INTER + INTRA:          -8.582
REMARK INTER:                  -8.934
REMARK INTRA:                   0.353
REMARK UNBOUND:                -0.170
REMARK SMILES CN1C(N)=N[C@](C)(c2cc(NC(=O)c3ccc(F)cn3)ccc2F)CS1(=O)=O
REMARK SMILES IDX 8 1 9 2 10 3 21 4 22 5 23 6 24 7 6 8 25 9 5 10 26 11 3 12
REMARK SMILES IDX 27 13 2 14 28 15 4 16 7 17 1 18 11 21 12 22 13 23 14 25
REMARK SMILES IDX 20 26 15 27 19 28 16 29 17 30 18 31
REMARK H PARENT 4 19 4 20 11 24
ROOT
ATOM      1  C   UNL     1      25.558  14.247  22.522  1.00  0.00     0.018 A 
ATOM      2  C   UNL     1      24.526  13.747  23.315  1.00  0.00     0.035 A 
ATOM      3  C   UNL     1      24.654  13.588  24.676  1.00  0.00     0.042 A 
ATOM      4  C   UNL     1      25.848  13.907  25.312  1.00  0.00     0.029 A 
ATOM      5  C   UNL     1      26.882  14.407  24.541  1.00  0.00     0.042 A 
ATOM      6  C   UNL     1      26.728  14.591  23.181  1.00  0.00     0.129 A 
ATOM      7  F   UNL     1      27.748  15.112  22.452  1.00  0.00    -0.207 F 
ENDROOT
BRANCH   1   8
ATOM      8  C   UNL     1      25.384  14.414  21.020  1.00  0.00     0.105 C 
ATOM      9  C   UNL     1      24.367  13.491  20.387  1.00  0.00     0.195 C 
ATOM     10  N   UNL     1      26.657  14.323  20.307  1.00  0.00    -0.240 NA
ATOM     11  S   UNL     1      24.873  11.797  20.544  1.00  0.00     0.239 S 
ATOM     12  C   UNL     1      27.192  13.179  20.010  1.00  0.00     0.205 C 
ATOM     13  O   UNL     1      24.285  11.083  19.425  1.00  0.00    -0.206 OA
ATOM     14  N   UNL     1      26.560  11.935  20.232  1.00  0.00    -0.243 N 
ATOM     15  O   UNL     1      24.812  11.352  21.902  1.00  0.00    -0.206 OA
ATOM     16  N   UNL     1      28.424  13.079  19.422  1.00  0.00    -0.369 N 
ATOM     17  C   UNL     1      24.931  15.847  20.731  1.00  0.00     0.044 C 
ATOM     18  C   UNL     1      27.231  10.640  20.004  1.00  0.00     0.167 C 
ATOM     19  H   UNL     1      28.944  13.892  19.226  1.00  0.00     0.159 HD
ATOM     20  H   UNL     1      28.791  12.194  19.194  1.00  0.00     0.159 HD
ENDBRANCH   1   8
BRANCH   3  21
ATOM     21  N   UNL     1      23.543  13.074  25.356  1.00  0.00    -0.321 N 
ATOM     22  C   UNL     1      23.136  11.755  25.458  1.00  0.00     0.274 C 
ATOM     23  O   UNL     1      23.628  10.817  24.847  1.00  0.00    -0.267 OA
ATOM     24  H   UNL     1      22.979  13.735  25.819  1.00  0.00     0.170 HD
BRANCH  22  25
ATOM     25  C   UNL     1      22.037  11.505  26.423  1.00  0.00     0.128 A 
ATOM     26  N   UNL     1      22.263  11.875  27.688  1.00  0.00    -0.248 NA
ATOM     27  C   UNL     1      20.856  10.927  25.991  1.00  0.00     0.037 A 
ATOM     28  C   UNL     1      21.284  11.655  28.581  1.00  0.00     0.151 A 
ATOM     29  C   UNL     1      19.864  10.719  26.933  1.00  0.00     0.043 A 
ATOM     30  C   UNL     1      20.078  11.081  28.249  1.00  0.00     0.141 A 
ATOM     31  F   UNL     1      19.141  10.906  29.196  1.00  0.00    -0.205 F 
ENDBRANCH  22  25
ENDBRANCH   3  21
TORSDOF 3
ENDMDL
MODEL 13
REMARK VINA RESULT:    -7.065      8.469     11.884
REMARK INTER + INTRA:          -8.474
REMARK INTER:                  -8.218
REMARK INTRA:                  -0.255
REMARK UNBOUND:                -0.170
REMARK SMILES CN1C(N)=N[C@](C)(c2cc(NC(=O)c3ccc(F)cn3)ccc2F)CS1(=O)=O
REMARK SMILES IDX 8 1 9 2 10 3 21 4 22 5 23 6 24 7 6 8 25 9 5 10 26 11 3 12
REMARK SMILES IDX 27 13 2 14 28 15 4 16 7 17 1 18 11 21 12 22 13 23 14 25
REMARK SMILES IDX 20 26 15 27 19 28 16 29 17 30 18 31
REMARK H PARENT 4 19 4 20 11 24
ROOT
ATOM      1  C   UNL     1      24.066   6.640  14.822  1.00  0.00     0.018 A 
ATOM      2  C   UNL     1      25.447   6.780  14.947  1.00  0.00     0.035 A 
ATOM      3  C   UNL     1      26.316   6.439  13.936  1.00  0.00     0.042 A 
ATOM      4  C   UNL     1      25.836   5.912  12.744  1.00  0.00     0.029 A 
ATOM      5  C   UNL     1      24.467   5.770  12.601  1.00  0.00     0.042 A 
ATOM      6  C   UNL     1      23.605   6.147  13.612  1.00  0.00     0.129 A 
ATOM      7  F   UNL     1      22.265   6.024  13.435  1.00  0.00    -0.207 F 
ENDROOT
BRANCH   1   8
ATOM      8  C   UNL     1      23.131   7.030  15.957  1.00  0.00     0.105 C 
ATOM      9  C   UNL     1      21.904   7.808  15.538  1.00  0.00     0.195 C 
ATOM     10  N   UNL     1      23.833   7.737  17.027  1.00  0.00    -0.240 NA
ATOM     11  S   UNL     1      22.362   9.375  14.842  1.00  0.00     0.239 S 
ATOM     12  C   UNL     1      24.093   9.006  16.949  1.00  0.00     0.205 C 
ATOM     13  O   UNL     1      21.250  10.276  15.083  1.00  0.00    -0.206 OA
ATOM     14  N   UNL     1      23.634   9.839  15.905  1.00  0.00    -0.243 N 
ATOM     15  O   UNL     1      23.012   9.221  13.578  1.00  0.00    -0.206 OA
ATOM     16  N   UNL     1      24.825   9.661  17.902  1.00  0.00    -0.369 N 
ATOM     17  C   UNL     1      22.640   5.757  16.652  1.00  0.00     0.044 C 
ATOM     18  C   UNL     1      24.041  11.251  15.765  1.00  0.00     0.167 C 
ATOM     19  H   UNL     1      25.189   9.165  18.671  1.00  0.00     0.159 HD
ATOM     20  H   UNL     1      24.988  10.629  17.820  1.00  0.00     0.159 HD
ENDBRANCH   1   8
BRANCH   3  21
ATOM     21  N   UNL     1      27.681   6.626  14.191  1.00  0.00    -0.321 N 
ATOM     22  C   UNL     1      28.557   5.774  14.840  1.00  0.00     0.274 C 
ATOM     23  O   UNL     1      28.237   4.745  15.422  1.00  0.00    -0.267 OA
ATOM     24  H   UNL     1      28.066   7.473  13.867  1.00  0.00     0.170 HD
BRANCH  22  25
ATOM     25  C   UNL     1      29.987   6.159  14.767  1.00  0.00     0.128 A 
ATOM     26  N   UNL     1      30.458   6.886  15.786  1.00  0.00    -0.248 NA
ATOM     27  C   UNL     1      30.757   5.758  13.689  1.00  0.00     0.037 A 
ATOM     28  C   UNL     1      31.750   7.251  15.740  1.00  0.00     0.151 A 
ATOM     29  C   UNL     1      32.086   6.144  13.673  1.00  0.00     0.043 A 
ATOM     30  C   UNL     1      32.593   6.906  14.708  1.00  0.00     0.141 A 
ATOM     31  F   UNL     1      33.878   7.296  14.741  1.00  0.00    -0.205 F 
ENDBRANCH  22  25
ENDBRANCH   3  21
TORSDOF 3
ENDMDL
MODEL 14
REMARK VINA RESULT:    -6.951      7.093     10.533
REMARK INTER + INTRA:          -8.340
REMARK INTER:                  -7.886
REMARK INTRA:                  -0.454
REMARK UNBOUND:                -0.170
REMARK SMILES CN1C(N)=N[C@](C)(c2cc(NC(=O)c3ccc(F)cn3)ccc2F)CS1(=O)=O
REMARK SMILES IDX 8 1 9 2 10 3 21 4 22 5 23 6 24 7 6 8 25 9 5 10 26 11 3 12
REMARK SMILES IDX 27 13 2 14 28 15 4 16 7 17 1 18 11 21 12 22 13 23 14 25
REMARK SMILES IDX 20 26 15 27 19 28 16 29 17 30 18 31
REMARK H PARENT 4 19 4 20 11 24
ROOT
ATOM      1  C   UNL     1      22.488   8.285  17.582  1.00  0.00     0.018 A 
ATOM      2  C   UNL     1      23.664   7.801  17.011  1.00  0.00     0.035 A 
ATOM      3  C   UNL     1      23.704   6.632  16.287  1.00  0.00     0.042 A 
ATOM      4  C   UNL     1      22.555   5.870  16.117  1.00  0.00     0.029 A 
ATOM      5  C   UNL     1      21.377   6.337  16.674  1.00  0.00     0.042 A 
ATOM      6  C   UNL     1      21.345   7.528  17.371  1.00  0.00     0.129 A 
ATOM      7  F   UNL     1      20.171   7.979  17.882  1.00  0.00    -0.207 F 
ENDROOT
BRANCH   1   8
ATOM      8  C   UNL     1      22.475   9.583  18.374  1.00  0.00     0.105 C 
ATOM      9  C   UNL     1      21.406  10.572  17.967  1.00  0.00     0.195 C 
ATOM     10  N   UNL     1      23.785  10.234  18.382  1.00  0.00    -0.240 NA
ATOM     11  S   UNL     1      21.665  11.125  16.300  1.00  0.00     0.239 S 
ATOM     12  C   UNL     1      24.186  10.968  17.390  1.00  0.00     0.205 C 
ATOM     13  O   UNL     1      21.092  12.456  16.211  1.00  0.00    -0.206 OA
ATOM     14  N   UNL     1      23.377  11.305  16.283  1.00  0.00    -0.243 N 
ATOM     15  O   UNL     1      21.421  10.080  15.355  1.00  0.00    -0.206 OA
ATOM     16  N   UNL     1      25.443  11.510  17.345  1.00  0.00    -0.369 N 
ATOM     17  C   UNL     1      22.246   9.258  19.853  1.00  0.00     0.044 C 
ATOM     18  C   UNL     1      23.886  12.035  15.106  1.00  0.00     0.167 C 
ATOM     19  H   UNL     1      26.082  11.333  18.073  1.00  0.00     0.159 HD
ATOM     20  H   UNL     1      25.707  12.078  16.585  1.00  0.00     0.159 HD
ENDBRANCH   1   8
BRANCH   3  21
ATOM     21  N   UNL     1      24.950   6.256  15.769  1.00  0.00    -0.321 N 
ATOM     22  C   UNL     1      25.464   6.503  14.508  1.00  0.00     0.274 C 
ATOM     23  O   UNL     1      24.840   6.994  13.577  1.00  0.00    -0.267 OA
ATOM     24  H   UNL     1      25.535   5.753  16.380  1.00  0.00     0.170 HD
BRANCH  22  25
ATOM     25  C   UNL     1      26.896   6.162  14.330  1.00  0.00     0.128 A 
ATOM     26  N   UNL     1      27.474   5.488  15.331  1.00  0.00    -0.248 NA
ATOM     27  C   UNL     1      27.556   6.531  13.171  1.00  0.00     0.037 A 
ATOM     28  C   UNL     1      28.772   5.172  15.194  1.00  0.00     0.151 A 
ATOM     29  C   UNL     1      28.891   6.186  13.057  1.00  0.00     0.043 A 
ATOM     30  C   UNL     1      29.514   5.500  14.082  1.00  0.00     0.141 A 
ATOM     31  F   UNL     1      30.806   5.136  14.013  1.00  0.00    -0.205 F 
ENDBRANCH  22  25
ENDBRANCH   3  21
TORSDOF 3
ENDMDL
MODEL 15
REMARK VINA RESULT:    -6.946      5.537      7.348
REMARK INTER + INTRA:          -8.335
REMARK INTER:                  -8.861
REMARK INTRA:                   0.526
REMARK UNBOUND:                -0.170
REMARK SMILES CN1C(N)=N[C@](C)(c2cc(NC(=O)c3ccc(F)cn3)ccc2F)CS1(=O)=O
REMARK SMILES IDX 8 1 9 2 10 3 21 4 22 5 23 6 24 7 6 8 25 9 5 10 26 11 3 12
REMARK SMILES IDX 27 13 2 14 28 15 4 16 7 17 1 18 11 21 12 22 13 23 14 25
REMARK SMILES IDX 20 26 15 27 19 28 16 29 17 30 18 31
REMARK H PARENT 4 19 4 20 11 24
ROOT
ATOM      1  C   UNL     1      22.636   7.629  17.336  1.00  0.00     0.018 A 
ATOM      2  C   UNL     1      22.843   8.416  18.467  1.00  0.00     0.035 A 
ATOM      3  C   UNL     1      22.226   8.154  19.670  1.00  0.00     0.042 A 
ATOM      4  C   UNL     1      21.342   7.089  19.789  1.00  0.00     0.029 A 
ATOM      5  C   UNL     1      21.126   6.296  18.676  1.00  0.00     0.042 A 
ATOM      6  C   UNL     1      21.777   6.551  17.486  1.00  0.00     0.129 A 
ATOM      7  F   UNL     1      21.571   5.739  16.417  1.00  0.00    -0.207 F 
ENDROOT
BRANCH   1   8
ATOM      8  C   UNL     1      23.335   7.943  16.022  1.00  0.00     0.105 C 
ATOM      9  C   UNL     1      23.489   9.416  15.713  1.00  0.00     0.195 C 
ATOM     10  N   UNL     1      22.714   7.255  14.892  1.00  0.00    -0.240 NA
ATOM     11  S   UNL     1      21.901  10.183  15.513  1.00  0.00     0.239 S 
ATOM     12  C   UNL     1      21.650   7.720  14.312  1.00  0.00     0.205 C 
ATOM     13  O   UNL     1      22.095  11.310  14.619  1.00  0.00    -0.206 OA
ATOM     14  N   UNL     1      21.065   8.967  14.626  1.00  0.00    -0.243 N 
ATOM     15  O   UNL     1      21.189  10.253  16.751  1.00  0.00    -0.206 OA
ATOM     16  N   UNL     1      21.008   7.041  13.312  1.00  0.00    -0.369 N 
ATOM     17  C   UNL     1      24.744   7.343  16.057  1.00  0.00     0.044 C 
ATOM     18  C   UNL     1      19.787   9.425  14.047  1.00  0.00     0.167 C 
ATOM     19  H   UNL     1      21.341   6.161  13.021  1.00  0.00     0.159 HD
ATOM     20  H   UNL     1      20.213   7.433  12.882  1.00  0.00     0.159 HD
ENDBRANCH   1   8
BRANCH   3  21
ATOM     21  N   UNL     1      22.519   9.024  20.728  1.00  0.00    -0.321 N 
ATOM     22  C   UNL     1      22.371  10.399  20.774  1.00  0.00     0.274 C 
ATOM     23  O   UNL     1      22.070  11.107  19.822  1.00  0.00    -0.267 OA
ATOM     24  H   UNL     1      22.875   8.603  21.544  1.00  0.00     0.170 HD
BRANCH  22  25
ATOM     25  C   UNL     1      22.567  11.013  22.110  1.00  0.00     0.128 A 
ATOM     26  N   UNL     1      22.640  10.170  23.145  1.00  0.00    -0.248 NA
ATOM     27  C   UNL     1      22.675  12.387  22.229  1.00  0.00     0.037 A 
ATOM     28  C   UNL     1      22.814  10.703  24.365  1.00  0.00     0.151 A 
ATOM     29  C   UNL     1      22.860  12.906  23.499  1.00  0.00     0.043 A 
ATOM     30  C   UNL     1      22.926  12.057  24.586  1.00  0.00     0.141 A 
ATOM     31  F   UNL     1      23.114  12.514  25.836  1.00  0.00    -0.205 F 
ENDBRANCH  22  25
ENDBRANCH   3  21
TORSDOF 3
ENDMDL
MODEL 16
REMARK VINA RESULT:    -6.871      3.618      5.925
REMARK INTER + INTRA:          -8.246
REMARK INTER:                  -7.796
REMARK INTRA:                  -0.450
REMARK UNBOUND:                -0.170
REMARK SMILES CN1C(N)=N[C@](C)(c2cc(NC(=O)c3ccc(F)cn3)ccc2F)CS1(=O)=O
REMARK SMILES IDX 8 1 9 2 10 3 21 4 22 5 23 6 24 7 6 8 25 9 5 10 26 11 3 12
REMARK SMILES IDX 27 13 2 14 28 15 4 16 7 17 1 18 11 21 12 22 13 23 14 25
REMARK SMILES IDX 20 26 15 27 19 28 16 29 17 30 18 31
REMARK H PARENT 4 19 4 20 11 24
ROOT
ATOM      1  C   UNL     1      25.373  13.142  22.969  1.00  0.00     0.018 A 
ATOM      2  C   UNL     1      24.674  12.232  22.177  1.00  0.00     0.035 A 
ATOM      3  C   UNL     1      23.326  12.003  22.333  1.00  0.00     0.042 A 
ATOM      4  C   UNL     1      22.609  12.668  23.319  1.00  0.00     0.029 A 
ATOM      5  C   UNL     1      23.286  13.578  24.113  1.00  0.00     0.042 A 
ATOM      6  C   UNL     1      24.632  13.821  23.923  1.00  0.00     0.129 A 
ATOM      7  F   UNL     1      25.266  14.740  24.696  1.00  0.00    -0.207 F 
ENDROOT
BRANCH   1   8
ATOM      8  C   UNL     1      26.862  13.375  22.770  1.00  0.00     0.105 C 
ATOM      9  C   UNL     1      27.258  14.813  22.517  1.00  0.00     0.195 C 
ATOM     10  N   UNL     1      27.419  12.511  21.730  1.00  0.00    -0.240 NA
ATOM     11  S   UNL     1      26.555  15.398  20.996  1.00  0.00     0.239 S 
ATOM     12  C   UNL     1      27.313  12.806  20.471  1.00  0.00     0.205 C 
ATOM     13  O   UNL     1      27.443  16.434  20.501  1.00  0.00    -0.206 OA
ATOM     14  N   UNL     1      26.770  14.018  19.990  1.00  0.00    -0.243 N 
ATOM     15  O   UNL     1      25.135  15.535  21.089  1.00  0.00    -0.206 OA
ATOM     16  N   UNL     1      27.751  11.964  19.484  1.00  0.00    -0.369 N 
ATOM     17  C   UNL     1      27.607  12.920  24.028  1.00  0.00     0.044 C 
ATOM     18  C   UNL     1      26.543  14.285  18.556  1.00  0.00     0.167 C 
ATOM     19  H   UNL     1      28.146  11.093  19.719  1.00  0.00     0.159 HD
ATOM     20  H   UNL     1      27.671  12.228  18.539  1.00  0.00     0.159 HD
ENDBRANCH   1   8
BRANCH   3  21
ATOM     21  N   UNL     1      22.746  11.060  21.474  1.00  0.00    -0.321 N 
ATOM     22  C   UNL     1      22.307  11.241  20.174  1.00  0.00     0.274 C 
ATOM     23  O   UNL     1      22.240  12.319  19.597  1.00  0.00    -0.267 OA
ATOM     24  H   UNL     1      22.637  10.154  21.842  1.00  0.00     0.170 HD
BRANCH  22  25
ATOM     25  C   UNL     1      21.934  10.000  19.453  1.00  0.00     0.128 A 
ATOM     26  N   UNL     1      22.097   8.854  20.122  1.00  0.00    -0.248 NA
ATOM     27  C   UNL     1      21.438  10.073  18.163  1.00  0.00     0.037 A 
ATOM     28  C   UNL     1      21.769   7.716  19.488  1.00  0.00     0.151 A 
ATOM     29  C   UNL     1      21.104   8.885  17.538  1.00  0.00     0.043 A 
ATOM     30  C   UNL     1      21.274   7.686  18.204  1.00  0.00     0.141 A 
ATOM     31  F   UNL     1      20.955   6.508  17.642  1.00  0.00    -0.205 F 
ENDBRANCH  22  25
ENDBRANCH   3  21
TORSDOF 3
ENDMDL
MODEL 17
REMARK VINA RESULT:    -6.863      4.106      5.843
REMARK INTER + INTRA:          -8.237
REMARK INTER:                  -7.901
REMARK INTRA:                  -0.336
REMARK UNBOUND:                -0.170
REMARK SMILES CN1C(N)=N[C@](C)(c2cc(NC(=O)c3ccc(F)cn3)ccc2F)CS1(=O)=O
REMARK SMILES IDX 8 1 9 2 10 3 21 4 22 5 23 6 24 7 6 8 25 9 5 10 26 11 3 12
REMARK SMILES IDX 27 13 2 14 28 15 4 16 7 17 1 18 11 21 12 22 13 23 14 25
REMARK SMILES IDX 20 26 15 27 19 28 16 29 17 30 18 31
REMARK H PARENT 4 19 4 20 11 24
ROOT
ATOM      1  C   UNL     1      23.264  10.215  18.349  1.00  0.00     0.018 A 
ATOM      2  C   UNL     1      22.909  10.053  19.687  1.00  0.00     0.035 A 
ATOM      3  C   UNL     1      22.580  11.117  20.496  1.00  0.00     0.042 A 
ATOM      4  C   UNL     1      22.614  12.414  20.000  1.00  0.00     0.029 A 
ATOM      5  C   UNL     1      22.960  12.594  18.673  1.00  0.00     0.042 A 
ATOM      6  C   UNL     1      23.257  11.514  17.864  1.00  0.00     0.129 A 
ATOM      7  F   UNL     1      23.565  11.716  16.557  1.00  0.00    -0.207 F 
ENDROOT
BRANCH   1   8
ATOM      8  C   UNL     1      23.619   9.019  17.480  1.00  0.00     0.105 C 
ATOM      9  C   UNL     1      22.903   8.959  16.149  1.00  0.00     0.195 C 
ATOM     10  N   UNL     1      23.457   7.754  18.195  1.00  0.00    -0.240 NA
ATOM     11  S   UNL     1      21.154   8.775  16.385  1.00  0.00     0.239 S 
ATOM     12  C   UNL     1      22.298   7.185  18.318  1.00  0.00     0.205 C 
ATOM     13  O   UNL     1      20.647   8.086  15.212  1.00  0.00    -0.206 OA
ATOM     14  N   UNL     1      21.122   7.652  17.690  1.00  0.00    -0.243 N 
ATOM     15  O   UNL     1      20.569   9.957  16.938  1.00  0.00    -0.206 OA
ATOM     16  N   UNL     1      22.118   6.047  19.059  1.00  0.00    -0.369 N 
ATOM     17  C   UNL     1      25.121   9.054  17.180  1.00  0.00     0.044 C 
ATOM     18  C   UNL     1      19.790   7.067  17.939  1.00  0.00     0.167 C 
ATOM     19  H   UNL     1      22.880   5.645  19.535  1.00  0.00     0.159 HD
ATOM     20  H   UNL     1      21.227   5.632  19.115  1.00  0.00     0.159 HD
ENDBRANCH   1   8
BRANCH   3  21
ATOM     21  N   UNL     1      22.245  10.817  21.823  1.00  0.00    -0.321 N 
ATOM     22  C   UNL     1      22.941  11.133  22.975  1.00  0.00     0.274 C 
ATOM     23  O   UNL     1      24.059  11.631  23.009  1.00  0.00    -0.267 OA
ATOM     24  H   UNL     1      21.406  10.317  21.951  1.00  0.00     0.170 HD
BRANCH  22  25
ATOM     25  C   UNL     1      22.222  10.863  24.244  1.00  0.00     0.128 A 
ATOM     26  N   UNL     1      21.852   9.596  24.457  1.00  0.00    -0.248 NA
ATOM     27  C   UNL     1      21.980  11.894  25.135  1.00  0.00     0.037 A 
ATOM     28  C   UNL     1      21.196   9.327  25.598  1.00  0.00     0.151 A 
ATOM     29  C   UNL     1      21.307  11.585  26.303  1.00  0.00     0.043 A 
ATOM     30  C   UNL     1      20.903  10.285  26.541  1.00  0.00     0.141 A 
ATOM     31  F   UNL     1      20.255   9.936  27.666  1.00  0.00    -0.205 F 
ENDBRANCH  22  25
ENDBRANCH   3  21
TORSDOF 3
ENDMDL
MODEL 18
REMARK VINA RESULT:    -6.854      3.289      4.416
REMARK INTER + INTRA:          -8.227
REMARK INTER:                  -8.559
REMARK INTRA:                   0.333
REMARK UNBOUND:                -0.170
REMARK SMILES CN1C(N)=N[C@](C)(c2cc(NC(=O)c3ccc(F)cn3)ccc2F)CS1(=O)=O
REMARK SMILES IDX 8 1 9 2 10 3 21 4 22 5 23 6 24 7 6 8 25 9 5 10 26 11 3 12
REMARK SMILES IDX 27 13 2 14 28 15 4 16 7 17 1 18 11 21 12 22 13 23 14 25
REMARK SMILES IDX 20 26 15 27 19 28 16 29 17 30 18 31
REMARK H PARENT 4 19 4 20 11 24
ROOT
ATOM      1  C   UNL     1      23.243  12.093  19.810  1.00  0.00     0.018 A 
ATOM      2  C   UNL     1      22.733  11.752  21.062  1.00  0.00     0.035 A 
ATOM      3  C   UNL     1      23.487  11.833  22.211  1.00  0.00     0.042 A 
ATOM      4  C   UNL     1      24.813  12.243  22.154  1.00  0.00     0.029 A 
ATOM      5  C   UNL     1      25.335  12.589  20.920  1.00  0.00     0.042 A 
ATOM      6  C   UNL     1      24.557  12.533  19.781  1.00  0.00     0.129 A 
ATOM      7  F   UNL     1      25.085  12.906  18.586  1.00  0.00    -0.207 F 
ENDROOT
BRANCH   1   8
ATOM      8  C   UNL     1      22.384  11.996  18.559  1.00  0.00     0.105 C 
ATOM      9  C   UNL     1      21.436  10.817  18.522  1.00  0.00     0.195 C 
ATOM     10  N   UNL     1      23.186  12.033  17.338  1.00  0.00    -0.240 NA
ATOM     11  S   UNL     1      22.338   9.288  18.507  1.00  0.00     0.239 S 
ATOM     12  C   UNL     1      23.781  10.975  16.881  1.00  0.00     0.205 C 
ATOM     13  O   UNL     1      21.496   8.318  17.830  1.00  0.00    -0.206 OA
ATOM     14  N   UNL     1      23.624   9.684  17.433  1.00  0.00    -0.243 N 
ATOM     15  O   UNL     1      22.995   9.051  19.755  1.00  0.00    -0.206 OA
ATOM     16  N   UNL     1      24.607  11.015  15.789  1.00  0.00    -0.369 N 
ATOM     17  C   UNL     1      21.529  13.262  18.447  1.00  0.00     0.044 C 
ATOM     18  C   UNL     1      24.403   8.515  16.981  1.00  0.00     0.167 C 
ATOM     19  H   UNL     1      24.779  11.870  15.334  1.00  0.00     0.159 HD
ATOM     20  H   UNL     1      25.028  10.188  15.459  1.00  0.00     0.159 HD
ENDBRANCH   1   8
BRANCH   3  21
ATOM     21  N   UNL     1      22.855  11.459  23.404  1.00  0.00    -0.321 N 
ATOM     22  C   UNL     1      22.268  12.274  24.355  1.00  0.00     0.274 C 
ATOM     23  O   UNL     1      22.322  13.497  24.365  1.00  0.00    -0.267 OA
ATOM     24  H   UNL     1      22.825  10.492  23.589  1.00  0.00     0.170 HD
BRANCH  22  25
ATOM     25  C   UNL     1      21.495  11.567  25.405  1.00  0.00     0.128 A 
ATOM     26  N   UNL     1      20.688  12.323  26.157  1.00  0.00    -0.248 NA
ATOM     27  C   UNL     1      21.624  10.197  25.554  1.00  0.00     0.037 A 
ATOM     28  C   UNL     1      19.981  11.705  27.117  1.00  0.00     0.151 A 
ATOM     29  C   UNL     1      20.877   9.589  26.547  1.00  0.00     0.043 A 
ATOM     30  C   UNL     1      20.046  10.350  27.346  1.00  0.00     0.141 A 
ATOM     31  F   UNL     1      19.295   9.802  28.317  1.00  0.00    -0.205 F 
ENDBRANCH  22  25
ENDBRANCH   3  21
TORSDOF 3
ENDMDL
MODEL 19
REMARK VINA RESULT:    -6.829      4.423      6.913
REMARK INTER + INTRA:          -8.197
REMARK INTER:                  -8.068
REMARK INTRA:                  -0.129
REMARK UNBOUND:                -0.170
REMARK SMILES CN1C(N)=N[C@](C)(c2cc(NC(=O)c3ccc(F)cn3)ccc2F)CS1(=O)=O
REMARK SMILES IDX 8 1 9 2 10 3 21 4 22 5 23 6 24 7 6 8 25 9 5 10 26 11 3 12
REMARK SMILES IDX 27 13 2 14 28 15 4 16 7 17 1 18 11 21 12 22 13 23 14 25
REMARK SMILES IDX 20 26 15 27 19 28 16 29 17 30 18 31
REMARK H PARENT 4 19 4 20 11 24
ROOT
ATOM      1  C   UNL     1      22.768  11.843  19.780  1.00  0.00     0.018 A 
ATOM      2  C   UNL     1      22.662  10.484  19.488  1.00  0.00     0.035 A 
ATOM      3  C   UNL     1      21.882  10.011  18.458  1.00  0.00     0.042 A 
ATOM      4  C   UNL     1      21.143  10.889  17.675  1.00  0.00     0.029 A 
ATOM      5  C   UNL     1      21.238  12.242  17.948  1.00  0.00     0.042 A 
ATOM      6  C   UNL     1      22.050  12.705  18.965  1.00  0.00     0.129 A 
ATOM      7  F   UNL     1      22.149  14.039  19.194  1.00  0.00    -0.207 F 
ENDROOT
BRANCH   1   8
ATOM      8  C   UNL     1      23.641  12.335  20.924  1.00  0.00     0.105 C 
ATOM      9  C   UNL     1      24.388  13.622  20.652  1.00  0.00     0.195 C 
ATOM     10  N   UNL     1      24.569  11.304  21.388  1.00  0.00    -0.240 NA
ATOM     11  S   UNL     1      25.550  13.405  19.327  1.00  0.00     0.239 S 
ATOM     12  C   UNL     1      25.688  11.069  20.776  1.00  0.00     0.205 C 
ATOM     13  O   UNL     1      26.620  14.359  19.554  1.00  0.00    -0.206 OA
ATOM     14  N   UNL     1      26.172  11.843  19.698  1.00  0.00    -0.243 N 
ATOM     15  O   UNL     1      24.890  13.221  18.072  1.00  0.00    -0.206 OA
ATOM     16  N   UNL     1      26.524  10.050  21.147  1.00  0.00    -0.369 N 
ATOM     17  C   UNL     1      22.758  12.579  22.151  1.00  0.00     0.044 C 
ATOM     18  C   UNL     1      27.384  11.489  18.933  1.00  0.00     0.167 C 
ATOM     19  H   UNL     1      26.274   9.454  21.890  1.00  0.00     0.159 HD
ATOM     20  H   UNL     1      27.375   9.912  20.671  1.00  0.00     0.159 HD
ENDBRANCH   1   8
BRANCH   3  21
ATOM     21  N   UNL     1      21.861   8.623  18.272  1.00  0.00    -0.321 N 
ATOM     22  C   UNL     1      22.840   7.817  17.718  1.00  0.00     0.274 C 
ATOM     23  O   UNL     1      23.857   8.221  17.169  1.00  0.00    -0.267 OA
ATOM     24  H   UNL     1      21.046   8.161  18.576  1.00  0.00     0.170 HD
BRANCH  22  25
ATOM     25  C   UNL     1      22.611   6.358  17.853  1.00  0.00     0.128 A 
ATOM     26  N   UNL     1      21.903   5.966  18.918  1.00  0.00    -0.248 NA
ATOM     27  C   UNL     1      23.113   5.488  16.901  1.00  0.00     0.037 A 
ATOM     28  C   UNL     1      21.687   4.648  19.064  1.00  0.00     0.151 A 
ATOM     29  C   UNL     1      22.869   4.138  17.076  1.00  0.00     0.043 A 
ATOM     30  C   UNL     1      22.150   3.706  18.174  1.00  0.00     0.141 A 
ATOM     31  F   UNL     1      21.880   2.406  18.381  1.00  0.00    -0.205 F 
ENDBRANCH  22  25
ENDBRANCH   3  21
TORSDOF 3
ENDMDL
MODEL 20
REMARK VINA RESULT:    -6.801      8.352     11.701
REMARK INTER + INTRA:          -8.163
REMARK INTER:                  -7.799
REMARK INTRA:                  -0.365
REMARK UNBOUND:                -0.170
REMARK SMILES CN1C(N)=N[C@](C)(c2cc(NC(=O)c3ccc(F)cn3)ccc2F)CS1(=O)=O
REMARK SMILES IDX 8 1 9 2 10 3 21 4 22 5 23 6 24 7 6 8 25 9 5 10 26 11 3 12
REMARK SMILES IDX 27 13 2 14 28 15 4 16 7 17 1 18 11 21 12 22 13 23 14 25
REMARK SMILES IDX 20 26 15 27 19 28 16 29 17 30 18 31
REMARK H PARENT 4 19 4 20 11 24
ROOT
ATOM      1  C   UNL     1      22.281   7.387  16.574  1.00  0.00     0.018 A 
ATOM      2  C   UNL     1      23.551   7.117  16.068  1.00  0.00     0.035 A 
ATOM      3  C   UNL     1      24.056   5.839  15.990  1.00  0.00     0.042 A 
ATOM      4  C   UNL     1      23.309   4.759  16.444  1.00  0.00     0.029 A 
ATOM      5  C   UNL     1      22.045   5.008  16.947  1.00  0.00     0.042 A 
ATOM      6  C   UNL     1      21.538   6.292  16.989  1.00  0.00     0.129 A 
ATOM      7  F   UNL     1      20.283   6.507  17.459  1.00  0.00    -0.207 F 
ENDROOT
BRANCH   1   8
ATOM      8  C   UNL     1      21.749   8.811  16.644  1.00  0.00     0.105 C 
ATOM      9  C   UNL     1      20.445   9.044  15.914  1.00  0.00     0.195 C 
ATOM     10  N   UNL     1      22.747   9.790  16.215  1.00  0.00    -0.240 NA
ATOM     11  S   UNL     1      20.645   8.777  14.171  1.00  0.00     0.239 S 
ATOM     12  C   UNL     1      22.957  10.044  14.960  1.00  0.00     0.205 C 
ATOM     13  O   UNL     1      19.657   9.610  13.508  1.00  0.00    -0.206 OA
ATOM     14  N   UNL     1      22.183   9.504  13.909  1.00  0.00    -0.243 N 
ATOM     15  O   UNL     1      20.863   7.396  13.871  1.00  0.00    -0.206 OA
ATOM     16  N   UNL     1      23.947  10.892  14.542  1.00  0.00    -0.369 N 
ATOM     17  C   UNL     1      21.515   9.180  18.111  1.00  0.00     0.044 C 
ATOM     18  C   UNL     1      22.512   9.703  12.483  1.00  0.00     0.167 C 
ATOM     19  H   UNL     1      24.540  11.319  15.202  1.00  0.00     0.159 HD
ATOM     20  H   UNL     1      24.066  11.075  13.582  1.00  0.00     0.159 HD
ENDBRANCH   1   8
BRANCH   3  21
ATOM     21  N   UNL     1      25.347   5.705  15.463  1.00  0.00    -0.321 N 
ATOM     22  C   UNL     1      25.784   5.989  14.182  1.00  0.00     0.274 C 
ATOM     23  O   UNL     1      25.060   6.291  13.242  1.00  0.00    -0.267 OA
ATOM     24  H   UNL     1      26.031   5.366  16.085  1.00  0.00     0.170 HD
BRANCH  22  25
ATOM     25  C   UNL     1      27.253   5.945  13.989  1.00  0.00     0.128 A 
ATOM     26  N   UNL     1      27.708   6.358  12.801  1.00  0.00    -0.248 NA
ATOM     27  C   UNL     1      28.072   5.502  15.013  1.00  0.00     0.037 A 
ATOM     28  C   UNL     1      29.036   6.323  12.602  1.00  0.00     0.151 A 
ATOM     29  C   UNL     1      29.436   5.483  14.780  1.00  0.00     0.043 A 
ATOM     30  C   UNL     1      29.930   5.894  13.557  1.00  0.00     0.141 A 
ATOM     31  F   UNL     1      31.246   5.902  13.287  1.00  0.00    -0.205 F 
ENDBRANCH  22  25
ENDBRANCH   3  21
TORSDOF 3
ENDMDL
