MODEL 1
REMARK VINA RESULT:    -9.142      0.000      0.000
REMARK INTER + INTRA:         -15.160
REMARK INTER:                 -13.418
REMARK INTRA:                  -1.742
REMARK UNBOUND:                -1.742
REMARK SMILES CN1CCN(CCOc2cc3c(c(OC4CCOCC4)c2)C(Nc2c(Cl)ccc4c2OCO4)N=CN3)CC1
REMARK SMILES IDX 8 1 7 2 6 3 5 4 2 5 3 6 38 7 4 8 37 9 1 10 9 11 21 12 10 13
REMARK SMILES IDX 13 14 11 15 12 16 36 17 22 18 35 19 34 20 14 22 15 23 16 24
REMARK SMILES IDX 20 25 17 26 19 27 18 28 23 29 24 31 30 32 25 33 31 34 29 35
REMARK SMILES IDX 27 36 32 37 33 38 28 39 26 40
REMARK H PARENT 36 21 23 30
ROOT
ATOM      1  O   UNL     1      -9.365  16.274  -6.325  1.00  0.00    -0.492 OA
ENDROOT
BRANCH   1   2
ATOM      2  C   UNL     1      -7.975  16.154  -6.507  1.00  0.00     0.245 C 
BRANCH   2   3
ATOM      3  C   UNL     1      -7.308  15.316  -5.403  1.00  0.00     0.126 C 
BRANCH   3   4
ATOM      4  N   UNL     1      -8.075  15.137  -4.175  1.00  0.00    -0.297 NA
ATOM      5  N   UNL     1      -8.402  13.893  -1.550  1.00  0.00    -0.304 NA
ATOM      6  C   UNL     1      -9.147  13.434  -2.710  1.00  0.00     0.099 C 
ATOM      7  C   UNL     1      -8.094  15.304  -1.699  1.00  0.00     0.099 C 
ATOM      8  C   UNL     1      -8.397  13.721  -4.018  1.00  0.00     0.100 C 
ATOM      9  C   UNL     1      -7.321  15.563  -3.006  1.00  0.00     0.100 C 
ATOM     10  C   UNL     1      -9.168  13.660  -0.338  1.00  0.00     0.105 C 
ENDBRANCH   3   4
ENDBRANCH   2   3
ENDBRANCH   1   2
BRANCH   1  11
ATOM     11  C   UNL     1     -10.137  16.021  -7.432  1.00  0.00     0.125 A 
ATOM     12  C   UNL     1      -9.840  15.030  -8.293  1.00  0.00     0.093 A 
ATOM     13  C   UNL     1     -11.237  16.727  -7.722  1.00  0.00     0.073 A 
ATOM     14  C   UNL     1     -10.560  14.713  -9.394  1.00  0.00     0.132 A 
ATOM     15  C   UNL     1     -11.978  16.455  -8.806  1.00  0.00     0.054 A 
ATOM     16  C   UNL     1     -11.671  15.450  -9.673  1.00  0.00     0.062 A 
ATOM     17  N   UNL     1     -12.989  17.203  -8.959  1.00  0.00    -0.346 N 
ATOM     18  C   UNL     1     -12.510  15.286 -10.737  1.00  0.00     0.236 C 
ATOM     19  C   UNL     1     -13.707  16.975  -9.967  1.00  0.00     0.193 C 
ATOM     20  N   UNL     1     -13.509  16.075 -10.829  1.00  0.00    -0.246 NA
ATOM     21  H   UNL     1     -13.202  17.925  -8.323  1.00  0.00     0.167 HD
BRANCH  14  22
ATOM     22  O   UNL     1     -10.145  13.682 -10.216  1.00  0.00    -0.490 OA
BRANCH  22  23
ATOM     23  C   UNL     1      -9.916  12.376  -9.747  1.00  0.00     0.178 C 
ATOM     24  C   UNL     1     -11.091  11.796  -8.958  1.00  0.00     0.073 C 
ATOM     25  C   UNL     1      -9.677  11.520 -11.002  1.00  0.00     0.073 C 
ATOM     26  C   UNL     1     -10.951  10.287  -8.789  1.00  0.00     0.164 C 
ATOM     27  C   UNL     1      -9.631  10.034 -10.663  1.00  0.00     0.164 C 
ATOM     28  O   UNL     1     -10.827   9.653 -10.039  1.00  0.00    -0.381 OA
ENDBRANCH  22  23
ENDBRANCH  14  22
BRANCH  18  29
ATOM     29  N   UNL     1     -12.547  14.467 -11.722  1.00  0.00    -0.355 N 
ATOM     30  H   UNL     1     -11.623  13.982 -11.870  1.00  0.00     0.163 HD
BRANCH  29  31
ATOM     31  C   UNL     1     -13.398  14.066 -12.591  1.00  0.00     0.102 A 
ATOM     32  C   UNL     1     -13.662  14.704 -13.754  1.00  0.00     0.190 A 
ATOM     33  C   UNL     1     -14.110  12.925 -12.369  1.00  0.00     0.068 A 
ATOM     34  O   UNL     1     -13.151  15.743 -14.178  1.00  0.00    -0.451 OA
ATOM     35  C   UNL     1     -14.569  14.257 -14.632  1.00  0.00     0.168 A 
ATOM     36  C   UNL     1     -15.023  12.484 -13.257  1.00  0.00     0.027 A 
ATOM     37  C   UNL     1     -13.684  16.016 -15.474  1.00  0.00     0.468 C 
ATOM     38  O   UNL     1     -14.653  14.985 -15.620  1.00  0.00    -0.454 OA
ATOM     39  C   UNL     1     -15.265  13.141 -14.400  1.00  0.00     0.052 A 
ATOM     40  Cl  UNL     1     -13.947  11.938 -10.945  1.00  0.00    -0.082 Cl
ENDBRANCH  29  31
ENDBRANCH  18  29
ENDBRANCH   1  11
TORSDOF 8
ENDMDL
MODEL 2
REMARK VINA RESULT:    -9.114      1.536      1.998
REMARK INTER + INTRA:         -15.118
REMARK INTER:                 -13.187
REMARK INTRA:                  -1.930
REMARK UNBOUND:                -1.742
REMARK SMILES CN1CCN(CCOc2cc3c(c(OC4CCOCC4)c2)C(Nc2c(Cl)ccc4c2OCO4)N=CN3)CC1
REMARK SMILES IDX 8 1 7 2 6 3 5 4 2 5 3 6 38 7 4 8 37 9 1 10 9 11 21 12 10 13
REMARK SMILES IDX 13 14 11 15 12 16 36 17 22 18 35 19 34 20 14 22 15 23 16 24
REMARK SMILES IDX 20 25 17 26 19 27 18 28 23 29 24 31 30 32 25 33 31 34 29 35
REMARK SMILES IDX 27 36 32 37 33 38 28 39 26 40
REMARK H PARENT 36 21 23 30
ROOT
ATOM      1  O   UNL     1      -9.347  16.173  -6.219  1.00  0.00    -0.492 OA
ENDROOT
BRANCH   1   2
ATOM      2  C   UNL     1      -7.962  15.949  -6.344  1.00  0.00     0.245 C 
BRANCH   2   3
ATOM      3  C   UNL     1      -7.417  15.014  -5.252  1.00  0.00     0.126 C 
BRANCH   3   4
ATOM      4  N   UNL     1      -8.194  14.938  -4.019  1.00  0.00    -0.297 NA
ATOM      5  N   UNL     1      -8.577  13.865  -1.327  1.00  0.00    -0.304 NA
ATOM      6  C   UNL     1      -9.338  13.370  -2.461  1.00  0.00     0.099 C 
ATOM      7  C   UNL     1      -8.210  15.250  -1.556  1.00  0.00     0.099 C 
ATOM      8  C   UNL     1      -8.575  13.549  -3.781  1.00  0.00     0.100 C 
ATOM      9  C   UNL     1      -7.425  15.401  -2.873  1.00  0.00     0.100 C 
ATOM     10  C   UNL     1      -9.354  13.735  -0.107  1.00  0.00     0.105 C 
ENDBRANCH   3   4
ENDBRANCH   2   3
ENDBRANCH   1   2
BRANCH   1  11
ATOM     11  C   UNL     1     -10.093  15.953  -7.351  1.00  0.00     0.125 A 
ATOM     12  C   UNL     1      -9.767  14.998  -8.241  1.00  0.00     0.093 A 
ATOM     13  C   UNL     1     -11.194  16.658  -7.638  1.00  0.00     0.073 A 
ATOM     14  C   UNL     1     -10.460  14.715  -9.368  1.00  0.00     0.132 A 
ATOM     15  C   UNL     1     -11.910  16.419  -8.746  1.00  0.00     0.054 A 
ATOM     16  C   UNL     1     -11.574  15.450  -9.643  1.00  0.00     0.062 A 
ATOM     17  N   UNL     1     -12.926  17.162  -8.892  1.00  0.00    -0.346 N 
ATOM     18  C   UNL     1     -12.388  15.317 -10.729  1.00  0.00     0.236 C 
ATOM     19  C   UNL     1     -13.620  16.964  -9.923  1.00  0.00     0.193 C 
ATOM     20  N   UNL     1     -13.394  16.098 -10.813  1.00  0.00    -0.246 NA
ATOM     21  H   UNL     1     -13.160  17.857  -8.235  1.00  0.00     0.167 HD
BRANCH  14  22
ATOM     22  O   UNL     1     -10.017  13.720 -10.219  1.00  0.00    -0.490 OA
BRANCH  22  23
ATOM     23  C   UNL     1      -9.881  12.378  -9.819  1.00  0.00     0.178 C 
ATOM     24  C   UNL     1     -10.964  11.920  -8.841  1.00  0.00     0.073 C 
ATOM     25  C   UNL     1      -9.980  11.549 -11.110  1.00  0.00     0.073 C 
ATOM     26  C   UNL     1     -10.994  10.400  -8.725  1.00  0.00     0.164 C 
ATOM     27  C   UNL     1     -10.070  10.056 -10.809  1.00  0.00     0.164 C 
ATOM     28  O   UNL     1     -11.176   9.804  -9.986  1.00  0.00    -0.381 OA
ENDBRANCH  22  23
ENDBRANCH  14  22
BRANCH  18  29
ATOM     29  N   UNL     1     -12.395  14.535 -11.745  1.00  0.00    -0.355 N 
ATOM     30  H   UNL     1     -11.434  14.414 -12.159  1.00  0.00     0.163 HD
BRANCH  29  31
ATOM     31  C   UNL     1     -13.250  13.851 -12.409  1.00  0.00     0.102 A 
ATOM     32  C   UNL     1     -13.772  12.673 -11.998  1.00  0.00     0.190 A 
ATOM     33  C   UNL     1     -13.691  14.302 -13.618  1.00  0.00     0.068 A 
ATOM     34  O   UNL     1     -13.536  12.067 -10.951  1.00  0.00    -0.451 OA
ATOM     35  C   UNL     1     -14.656  11.981 -12.729  1.00  0.00     0.168 A 
ATOM     36  C   UNL     1     -14.579  13.598 -14.347  1.00  0.00     0.027 A 
ATOM     37  C   UNL     1     -14.356  10.900 -10.905  1.00  0.00     0.468 C 
ATOM     38  O   UNL     1     -15.002  10.940 -12.172  1.00  0.00    -0.454 OA
ATOM     39  C   UNL     1     -15.076  12.431 -13.914  1.00  0.00     0.052 A 
ATOM     40  Cl  UNL     1     -13.160  15.787 -14.355  1.00  0.00    -0.082 Cl
ENDBRANCH  29  31
ENDBRANCH  18  29
ENDBRANCH   1  11
TORSDOF 8
ENDMDL
MODEL 3
REMARK VINA RESULT:    -9.000      1.523      2.370
REMARK INTER + INTRA:         -14.951
REMARK INTER:                 -12.781
REMARK INTRA:                  -2.171
REMARK UNBOUND:                -1.742
REMARK SMILES CN1CCN(CCOc2cc3c(c(OC4CCOCC4)c2)C(Nc2c(Cl)ccc4c2OCO4)N=CN3)CC1
REMARK SMILES IDX 8 1 7 2 6 3 5 4 2 5 3 6 38 7 4 8 37 9 1 10 9 11 21 12 10 13
REMARK SMILES IDX 13 14 11 15 12 16 36 17 22 18 35 19 34 20 14 22 15 23 16 24
REMARK SMILES IDX 20 25 17 26 19 27 18 28 23 29 24 31 30 32 25 33 31 34 29 35
REMARK SMILES IDX 27 36 32 37 33 38 28 39 26 40
REMARK H PARENT 36 21 23 30
ROOT
ATOM      1  O   UNL     1      -9.346  16.248  -6.338  1.00  0.00    -0.492 OA
ENDROOT
BRANCH   1   2
ATOM      2  C   UNL     1      -8.125  15.550  -6.282  1.00  0.00     0.245 C 
BRANCH   2   3
ATOM      3  C   UNL     1      -8.069  14.559  -5.108  1.00  0.00     0.126 C 
BRANCH   3   4
ATOM      4  N   UNL     1      -7.815  13.164  -5.451  1.00  0.00    -0.297 NA
ATOM      5  N   UNL     1      -7.693  11.025  -7.439  1.00  0.00    -0.304 NA
ATOM      6  C   UNL     1      -8.810  11.147  -6.519  1.00  0.00     0.099 C 
ATOM      7  C   UNL     1      -6.497  11.573  -6.827  1.00  0.00     0.099 C 
ATOM      8  C   UNL     1      -9.015  12.599  -6.062  1.00  0.00     0.100 C 
ATOM      9  C   UNL     1      -6.719  13.037  -6.400  1.00  0.00     0.100 C 
ATOM     10  C   UNL     1      -7.492   9.632  -7.801  1.00  0.00     0.105 C 
ENDBRANCH   3   4
ENDBRANCH   2   3
ENDBRANCH   1   2
BRANCH   1  11
ATOM     11  C   UNL     1     -10.126  16.003  -7.442  1.00  0.00     0.125 A 
ATOM     12  C   UNL     1      -9.823  15.032  -8.323  1.00  0.00     0.093 A 
ATOM     13  C   UNL     1     -11.238  16.697  -7.709  1.00  0.00     0.073 A 
ATOM     14  C   UNL     1     -10.549  14.723  -9.421  1.00  0.00     0.132 A 
ATOM     15  C   UNL     1     -11.987  16.433  -8.789  1.00  0.00     0.054 A 
ATOM     16  C   UNL     1     -11.674  15.447  -9.676  1.00  0.00     0.062 A 
ATOM     17  N   UNL     1     -13.010  17.169  -8.919  1.00  0.00    -0.346 N 
ATOM     18  C   UNL     1     -12.520  15.289 -10.734  1.00  0.00     0.236 C 
ATOM     19  C   UNL     1     -13.735  16.947  -9.924  1.00  0.00     0.193 C 
ATOM     20  N   UNL     1     -13.532  16.064 -10.803  1.00  0.00    -0.246 NA
ATOM     21  H   UNL     1     -13.227  17.876  -8.269  1.00  0.00     0.167 HD
BRANCH  14  22
ATOM     22  O   UNL     1     -10.127  13.712 -10.265  1.00  0.00    -0.490 OA
BRANCH  22  23
ATOM     23  C   UNL     1     -10.073  12.362  -9.873  1.00  0.00     0.178 C 
ATOM     24  C   UNL     1     -11.278  11.920  -9.042  1.00  0.00     0.073 C 
ATOM     25  C   UNL     1     -10.031  11.552 -11.179  1.00  0.00     0.073 C 
ATOM     26  C   UNL     1     -11.357  10.399  -8.954  1.00  0.00     0.164 C 
ATOM     27  C   UNL     1     -10.192  10.059 -10.915  1.00  0.00     0.164 C 
ATOM     28  O   UNL     1     -11.397   9.824 -10.238  1.00  0.00    -0.381 OA
ENDBRANCH  22  23
ENDBRANCH  14  22
BRANCH  18  29
ATOM     29  N   UNL     1     -12.556  14.487 -11.734  1.00  0.00    -0.355 N 
ATOM     30  H   UNL     1     -11.636  13.993 -11.878  1.00  0.00     0.163 HD
BRANCH  29  31
ATOM     31  C   UNL     1     -13.401  14.110 -12.618  1.00  0.00     0.102 A 
ATOM     32  C   UNL     1     -13.635  14.764 -13.779  1.00  0.00     0.190 A 
ATOM     33  C   UNL     1     -14.138  12.981 -12.418  1.00  0.00     0.068 A 
ATOM     34  O   UNL     1     -13.098  15.796 -14.186  1.00  0.00    -0.451 OA
ATOM     35  C   UNL     1     -14.538  14.343 -14.675  1.00  0.00     0.168 A 
ATOM     36  C   UNL     1     -15.045  12.566 -13.324  1.00  0.00     0.027 A 
ATOM     37  C   UNL     1     -13.606  16.092 -15.487  1.00  0.00     0.468 C 
ATOM     38  O   UNL     1     -14.592  15.081 -15.658  1.00  0.00    -0.454 OA
ATOM     39  C   UNL     1     -15.257  13.238 -14.464  1.00  0.00     0.052 A 
ATOM     40  Cl  UNL     1     -14.015  11.978 -11.001  1.00  0.00    -0.082 Cl
ENDBRANCH  29  31
ENDBRANCH  18  29
ENDBRANCH   1  11
TORSDOF 8
ENDMDL
MODEL 4
REMARK VINA RESULT:    -8.930      1.769      2.536
REMARK INTER + INTRA:         -14.849
REMARK INTER:                 -12.902
REMARK INTRA:                  -1.947
REMARK UNBOUND:                -1.742
REMARK SMILES CN1CCN(CCOc2cc3c(c(OC4CCOCC4)c2)C(Nc2c(Cl)ccc4c2OCO4)N=CN3)CC1
REMARK SMILES IDX 8 1 7 2 6 3 5 4 2 5 3 6 38 7 4 8 37 9 1 10 9 11 21 12 10 13
REMARK SMILES IDX 13 14 11 15 12 16 36 17 22 18 35 19 34 20 14 22 15 23 16 24
REMARK SMILES IDX 20 25 17 26 19 27 18 28 23 29 24 31 30 32 25 33 31 34 29 35
REMARK SMILES IDX 27 36 32 37 33 38 28 39 26 40
REMARK H PARENT 36 21 23 30
ROOT
ATOM      1  O   UNL     1     -10.207  12.725  -6.479  1.00  0.00    -0.492 OA
ENDROOT
BRANCH   1   2
ATOM      2  C   UNL     1      -8.885  12.248  -6.539  1.00  0.00     0.245 C 
BRANCH   2   3
ATOM      3  C   UNL     1      -7.880  13.218  -5.895  1.00  0.00     0.126 C 
BRANCH   3   4
ATOM      4  N   UNL     1      -8.378  14.554  -5.588  1.00  0.00    -0.297 NA
ATOM      5  N   UNL     1      -7.880  17.331  -4.822  1.00  0.00    -0.304 NA
ATOM      6  C   UNL     1      -8.371  16.353  -3.867  1.00  0.00     0.099 C 
ATOM      7  C   UNL     1      -8.322  16.970  -6.157  1.00  0.00     0.099 C 
ATOM      8  C   UNL     1      -7.946  14.926  -4.244  1.00  0.00     0.100 C 
ATOM      9  C   UNL     1      -7.863  15.545  -6.521  1.00  0.00     0.100 C 
ATOM     10  C   UNL     1      -8.352  18.658  -4.467  1.00  0.00     0.105 C 
ENDBRANCH   3   4
ENDBRANCH   2   3
ENDBRANCH   1   2
BRANCH   1  11
ATOM     11  C   UNL     1     -10.750  13.134  -7.673  1.00  0.00     0.125 A 
ATOM     12  C   UNL     1     -10.865  12.300  -8.723  1.00  0.00     0.093 A 
ATOM     13  C   UNL     1     -11.212  14.374  -7.869  1.00  0.00     0.073 A 
ATOM     14  C   UNL     1     -11.401  12.626  -9.921  1.00  0.00     0.132 A 
ATOM     15  C   UNL     1     -11.745  14.747  -9.041  1.00  0.00     0.054 A 
ATOM     16  C   UNL     1     -11.858  13.896 -10.100  1.00  0.00     0.062 A 
ATOM     17  N   UNL     1     -12.139  15.950  -9.088  1.00  0.00    -0.346 N 
ATOM     18  C   UNL     1     -12.416  14.408 -11.235  1.00  0.00     0.236 C 
ATOM     19  C   UNL     1     -12.644  16.332 -10.175  1.00  0.00     0.193 C 
ATOM     20  N   UNL     1     -12.792  15.627 -11.211  1.00  0.00    -0.246 NA
ATOM     21  H   UNL     1     -12.054  16.554  -8.314  1.00  0.00     0.167 HD
BRANCH  14  22
ATOM     22  O   UNL     1     -11.449  11.686 -10.934  1.00  0.00    -0.490 OA
BRANCH  22  23
ATOM     23  C   UNL     1     -10.856  10.414 -10.825  1.00  0.00     0.178 C 
ATOM     24  C   UNL     1     -11.853   9.263 -10.958  1.00  0.00     0.073 C 
ATOM     25  C   UNL     1      -9.833  10.335 -11.970  1.00  0.00     0.073 C 
ATOM     26  C   UNL     1     -11.136   7.939 -11.198  1.00  0.00     0.164 C 
ATOM     27  C   UNL     1      -9.265   8.927 -12.114  1.00  0.00     0.164 C 
ATOM     28  O   UNL     1     -10.308   8.015 -12.332  1.00  0.00    -0.381 OA
ENDBRANCH  22  23
ENDBRANCH  14  22
BRANCH  18  29
ATOM     29  N   UNL     1     -12.687  13.922 -12.390  1.00  0.00    -0.355 N 
ATOM     30  H   UNL     1     -11.859  13.429 -12.817  1.00  0.00     0.163 HD
BRANCH  29  31
ATOM     31  C   UNL     1     -13.690  13.865 -13.184  1.00  0.00     0.102 A 
ATOM     32  C   UNL     1     -13.879  14.690 -14.238  1.00  0.00     0.190 A 
ATOM     33  C   UNL     1     -14.658  12.924 -12.990  1.00  0.00     0.068 A 
ATOM     34  O   UNL     1     -13.150  15.609 -14.618  1.00  0.00    -0.451 OA
ATOM     35  C   UNL     1     -14.949  14.605 -15.039  1.00  0.00     0.168 A 
ATOM     36  C   UNL     1     -15.733  12.848 -13.799  1.00  0.00     0.027 A 
ATOM     37  C   UNL     1     -13.705  16.171 -15.806  1.00  0.00     0.468 C 
ATOM     38  O   UNL     1     -14.925  15.448 -15.934  1.00  0.00    -0.454 OA
ATOM     39  C   UNL     1     -15.893  13.683 -14.835  1.00  0.00     0.052 A 
ATOM     40  Cl  UNL     1     -14.636  11.757 -11.699  1.00  0.00    -0.082 Cl
ENDBRANCH  29  31
ENDBRANCH  18  29
ENDBRANCH   1  11
TORSDOF 8
ENDMDL
MODEL 5
REMARK VINA RESULT:    -8.893      2.888      4.053
REMARK INTER + INTRA:         -14.794
REMARK INTER:                 -12.603
REMARK INTRA:                  -2.191
REMARK UNBOUND:                -1.742
REMARK SMILES CN1CCN(CCOc2cc3c(c(OC4CCOCC4)c2)C(Nc2c(Cl)ccc4c2OCO4)N=CN3)CC1
REMARK SMILES IDX 8 1 7 2 6 3 5 4 2 5 3 6 38 7 4 8 37 9 1 10 9 11 21 12 10 13
REMARK SMILES IDX 13 14 11 15 12 16 36 17 22 18 35 19 34 20 14 22 15 23 16 24
REMARK SMILES IDX 20 25 17 26 19 27 18 28 23 29 24 31 30 32 25 33 31 34 29 35
REMARK SMILES IDX 27 36 32 37 33 38 28 39 26 40
REMARK H PARENT 36 21 23 30
ROOT
ATOM      1  O   UNL     1     -10.435  15.803  -8.020  1.00  0.00    -0.492 OA
ENDROOT
BRANCH   1   2
ATOM      2  C   UNL     1      -9.450  14.804  -7.907  1.00  0.00     0.245 C 
BRANCH   2   3
ATOM      3  C   UNL     1      -9.790  13.764  -6.826  1.00  0.00     0.126 C 
BRANCH   3   4
ATOM      4  N   UNL     1      -9.510  12.371  -7.157  1.00  0.00    -0.297 NA
ATOM      5  N   UNL     1      -9.263  10.239  -9.141  1.00  0.00    -0.304 NA
ATOM      6  C   UNL     1     -10.431  10.353  -8.286  1.00  0.00     0.099 C 
ATOM      7  C   UNL     1      -8.106  10.791  -8.460  1.00  0.00     0.099 C 
ATOM      8  C   UNL     1     -10.669  11.802  -7.838  1.00  0.00     0.100 C 
ATOM      9  C   UNL     1      -8.360  12.252  -8.042  1.00  0.00     0.100 C 
ATOM     10  C   UNL     1      -9.034   8.848  -9.494  1.00  0.00     0.105 C 
ENDBRANCH   3   4
ENDBRANCH   2   3
ENDBRANCH   1   2
BRANCH   1  11
ATOM     11  C   UNL     1     -11.351  15.629  -9.029  1.00  0.00     0.125 A 
ATOM     12  C   UNL     1     -11.269  14.599  -9.892  1.00  0.00     0.093 A 
ATOM     13  C   UNL     1     -12.386  16.456  -9.215  1.00  0.00     0.073 A 
ATOM     14  C   UNL     1     -12.140  14.355 -10.898  1.00  0.00     0.132 A 
ATOM     15  C   UNL     1     -13.271  16.260 -10.203  1.00  0.00     0.054 A 
ATOM     16  C   UNL     1     -13.182  15.214 -11.072  1.00  0.00     0.062 A 
ATOM     17  N   UNL     1     -14.199  17.121 -10.263  1.00  0.00    -0.346 N 
ATOM     18  C   UNL     1     -14.148  15.137 -12.033  1.00  0.00     0.236 C 
ATOM     19  C   UNL     1     -15.047  16.965 -11.180  1.00  0.00     0.193 C 
ATOM     20  N   UNL     1     -15.053  16.037 -12.035  1.00  0.00    -0.246 NA
ATOM     21  H   UNL     1     -14.254  17.871  -9.627  1.00  0.00     0.167 HD
BRANCH  14  22
ATOM     22  O   UNL     1     -11.942  13.272 -11.734  1.00  0.00    -0.490 OA
BRANCH  22  23
ATOM     23  C   UNL     1     -11.933  11.942 -11.272  1.00  0.00     0.178 C 
ATOM     24  C   UNL     1     -13.323  11.410 -10.919  1.00  0.00     0.073 C 
ATOM     25  C   UNL     1     -11.347  11.108 -12.423  1.00  0.00     0.073 C 
ATOM     26  C   UNL     1     -13.311   9.891 -10.779  1.00  0.00     0.164 C 
ATOM     27  C   UNL     1     -11.478   9.613 -12.151  1.00  0.00     0.164 C 
ATOM     28  O   UNL     1     -12.827   9.284 -11.952  1.00  0.00    -0.381 OA
ENDBRANCH  22  23
ENDBRANCH  14  22
BRANCH  18  29
ATOM     29  N   UNL     1     -14.390  14.316 -12.987  1.00  0.00    -0.355 N 
ATOM     30  H   UNL     1     -14.263  13.313 -12.689  1.00  0.00     0.163 HD
BRANCH  29  31
ATOM     31  C   UNL     1     -14.747  14.368 -14.215  1.00  0.00     0.102 A 
ATOM     32  C   UNL     1     -15.850  13.766 -14.717  1.00  0.00     0.190 A 
ATOM     33  C   UNL     1     -13.994  15.063 -15.114  1.00  0.00     0.068 A 
ATOM     34  O   UNL     1     -16.683  13.090 -14.111  1.00  0.00    -0.451 OA
ATOM     35  C   UNL     1     -16.182  13.835 -16.013  1.00  0.00     0.168 A 
ATOM     36  C   UNL     1     -14.335  15.125 -16.416  1.00  0.00     0.027 A 
ATOM     37  C   UNL     1     -17.711  12.708 -15.024  1.00  0.00     0.468 C 
ATOM     38  O   UNL     1     -17.219  13.220 -16.257  1.00  0.00    -0.454 OA
ATOM     39  C   UNL     1     -15.433  14.515 -16.884  1.00  0.00     0.052 A 
ATOM     40  Cl  UNL     1     -12.531  15.914 -14.705  1.00  0.00    -0.082 Cl
ENDBRANCH  29  31
ENDBRANCH  18  29
ENDBRANCH   1  11
TORSDOF 8
ENDMDL
MODEL 6
REMARK VINA RESULT:    -8.879      2.056      2.942
REMARK INTER + INTRA:         -14.774
REMARK INTER:                 -12.391
REMARK INTRA:                  -2.383
REMARK UNBOUND:                -1.742
REMARK SMILES CN1CCN(CCOc2cc3c(c(OC4CCOCC4)c2)C(Nc2c(Cl)ccc4c2OCO4)N=CN3)CC1
REMARK SMILES IDX 8 1 7 2 6 3 5 4 2 5 3 6 38 7 4 8 37 9 1 10 9 11 21 12 10 13
REMARK SMILES IDX 13 14 11 15 12 16 36 17 22 18 35 19 34 20 14 22 15 23 16 24
REMARK SMILES IDX 20 25 17 26 19 27 18 28 23 29 24 31 30 32 25 33 31 34 29 35
REMARK SMILES IDX 27 36 32 37 33 38 28 39 26 40
REMARK H PARENT 36 21 23 30
ROOT
ATOM      1  O   UNL     1      -9.687  16.577  -6.277  1.00  0.00    -0.492 OA
ENDROOT
BRANCH   1   2
ATOM      2  C   UNL     1      -8.378  16.068  -6.192  1.00  0.00     0.245 C 
BRANCH   2   3
ATOM      3  C   UNL     1      -8.180  15.155  -4.970  1.00  0.00     0.126 C 
BRANCH   3   4
ATOM      4  N   UNL     1      -7.887  13.754  -5.251  1.00  0.00    -0.297 NA
ATOM      5  N   UNL     1      -7.737  11.524  -7.135  1.00  0.00    -0.304 NA
ATOM      6  C   UNL     1      -8.836  11.655  -6.195  1.00  0.00     0.099 C 
ATOM      7  C   UNL     1      -6.547  12.142  -6.580  1.00  0.00     0.099 C 
ATOM      8  C   UNL     1      -9.080  13.120  -5.804  1.00  0.00     0.100 C 
ATOM      9  C   UNL     1      -6.809  13.616  -6.219  1.00  0.00     0.100 C 
ATOM     10  C   UNL     1      -7.497  10.123  -7.434  1.00  0.00     0.105 C 
ENDBRANCH   3   4
ENDBRANCH   2   3
ENDBRANCH   1   2
BRANCH   1  11
ATOM     11  C   UNL     1     -10.378  16.263  -7.422  1.00  0.00     0.125 A 
ATOM     12  C   UNL     1      -9.970  15.285  -8.251  1.00  0.00     0.093 A 
ATOM     13  C   UNL     1     -11.502  16.894  -7.782  1.00  0.00     0.073 A 
ATOM     14  C   UNL     1     -10.605  14.911  -9.386  1.00  0.00     0.132 A 
ATOM     15  C   UNL     1     -12.162  16.563  -8.902  1.00  0.00     0.054 A 
ATOM     16  C   UNL     1     -11.743  15.571  -9.736  1.00  0.00     0.062 A 
ATOM     17  N   UNL     1     -13.209  17.243  -9.121  1.00  0.00    -0.346 N 
ATOM     18  C   UNL     1     -12.508  15.343 -10.843  1.00  0.00     0.236 C 
ATOM     19  C   UNL     1     -13.852  16.959 -10.164  1.00  0.00     0.193 C 
ATOM     20  N   UNL     1     -13.549  16.064 -11.001  1.00  0.00    -0.246 NA
ATOM     21  H   UNL     1     -13.503  17.956  -8.508  1.00  0.00     0.167 HD
BRANCH  14  22
ATOM     22  O   UNL     1     -10.079  13.901 -10.169  1.00  0.00    -0.490 OA
BRANCH  22  23
ATOM     23  C   UNL     1      -9.985  12.566  -9.733  1.00  0.00     0.178 C 
ATOM     24  C   UNL     1     -11.196  12.103  -8.921  1.00  0.00     0.073 C 
ATOM     25  C   UNL     1      -9.878  11.719 -11.012  1.00  0.00     0.073 C 
ATOM     26  C   UNL     1     -11.220  10.585  -8.787  1.00  0.00     0.164 C 
ATOM     27  C   UNL     1      -9.990  10.229 -10.705  1.00  0.00     0.164 C 
ATOM     28  O   UNL     1     -11.204   9.970 -10.053  1.00  0.00    -0.381 OA
ENDBRANCH  22  23
ENDBRANCH  14  22
BRANCH  18  29
ATOM     29  N   UNL     1     -12.437  14.513 -11.817  1.00  0.00    -0.355 N 
ATOM     30  H   UNL     1     -11.446  14.376 -12.150  1.00  0.00     0.163 HD
BRANCH  29  31
ATOM     31  C   UNL     1     -13.237  13.795 -12.512  1.00  0.00     0.102 A 
ATOM     32  C   UNL     1     -13.784  12.632 -12.088  1.00  0.00     0.190 A 
ATOM     33  C   UNL     1     -13.589  14.189 -13.769  1.00  0.00     0.068 A 
ATOM     34  O   UNL     1     -13.624  12.075 -11.000  1.00  0.00    -0.451 OA
ATOM     35  C   UNL     1     -14.609  11.903 -12.850  1.00  0.00     0.168 A 
ATOM     36  C   UNL     1     -14.418  13.447 -14.529  1.00  0.00     0.027 A 
ATOM     37  C   UNL     1     -14.442  10.906 -10.963  1.00  0.00     0.468 C 
ATOM     38  O   UNL     1     -14.992  10.885 -12.275  1.00  0.00    -0.454 OA
ATOM     39  C   UNL     1     -14.941  12.297 -14.083  1.00  0.00     0.052 A 
ATOM     40  Cl  UNL     1     -13.010  15.643 -14.530  1.00  0.00    -0.082 Cl
ENDBRANCH  29  31
ENDBRANCH  18  29
ENDBRANCH   1  11
TORSDOF 8
ENDMDL
MODEL 7
REMARK VINA RESULT:    -8.850      2.155      2.913
REMARK INTER + INTRA:         -14.731
REMARK INTER:                 -13.108
REMARK INTRA:                  -1.623
REMARK UNBOUND:                -1.742
REMARK SMILES CN1CCN(CCOc2cc3c(c(OC4CCOCC4)c2)C(Nc2c(Cl)ccc4c2OCO4)N=CN3)CC1
REMARK SMILES IDX 8 1 7 2 6 3 5 4 2 5 3 6 38 7 4 8 37 9 1 10 9 11 21 12 10 13
REMARK SMILES IDX 13 14 11 15 12 16 36 17 22 18 35 19 34 20 14 22 15 23 16 24
REMARK SMILES IDX 20 25 17 26 19 27 18 28 23 29 24 31 30 32 25 33 31 34 29 35
REMARK SMILES IDX 27 36 32 37 33 38 28 39 26 40
REMARK H PARENT 36 21 23 30
ROOT
ATOM      1  O   UNL     1      -9.171  15.833  -6.274  1.00  0.00    -0.492 OA
ENDROOT
BRANCH   1   2
ATOM      2  C   UNL     1      -8.326  16.959  -6.267  1.00  0.00     0.245 C 
BRANCH   2   3
ATOM      3  C   UNL     1      -7.434  17.016  -5.015  1.00  0.00     0.126 C 
BRANCH   3   4
ATOM      4  N   UNL     1      -7.107  18.347  -4.515  1.00  0.00    -0.297 NA
ATOM      5  N   UNL     1      -7.523  21.240  -4.547  1.00  0.00    -0.304 NA
ATOM      6  C   UNL     1      -6.381  20.627  -5.201  1.00  0.00     0.099 C 
ATOM      7  C   UNL     1      -7.941  20.416  -3.427  1.00  0.00     0.099 C 
ATOM      8  C   UNL     1      -6.679  19.183  -5.632  1.00  0.00     0.100 C 
ATOM      9  C   UNL     1      -8.257  18.981  -3.888  1.00  0.00     0.100 C 
ATOM     10  C   UNL     1      -7.186  22.580  -4.100  1.00  0.00     0.105 C 
ENDBRANCH   3   4
ENDBRANCH   2   3
ENDBRANCH   1   2
BRANCH   1  11
ATOM     11  C   UNL     1      -9.954  15.680  -7.392  1.00  0.00     0.125 A 
ATOM     12  C   UNL     1      -9.693  14.738  -8.317  1.00  0.00     0.093 A 
ATOM     13  C   UNL     1     -11.029  16.440  -7.630  1.00  0.00     0.073 A 
ATOM     14  C   UNL     1     -10.427  14.518  -9.433  1.00  0.00     0.132 A 
ATOM     15  C   UNL     1     -11.783  16.265  -8.725  1.00  0.00     0.054 A 
ATOM     16  C   UNL     1     -11.513  15.309  -9.657  1.00  0.00     0.062 A 
ATOM     17  N   UNL     1     -12.768  17.056  -8.824  1.00  0.00    -0.346 N 
ATOM     18  C   UNL     1     -12.359  15.244 -10.725  1.00  0.00     0.236 C 
ATOM     19  C   UNL     1     -13.496  16.918  -9.841  1.00  0.00     0.193 C 
ATOM     20  N   UNL     1     -13.331  16.070 -10.761  1.00  0.00    -0.246 NA
ATOM     21  H   UNL     1     -12.954  17.741  -8.141  1.00  0.00     0.167 HD
BRANCH  14  22
ATOM     22  O   UNL     1     -10.050  13.530 -10.322  1.00  0.00    -0.490 OA
BRANCH  22  23
ATOM     23  C   UNL     1      -9.943  12.175  -9.959  1.00  0.00     0.178 C 
ATOM     24  C   UNL     1     -10.975  11.740  -8.917  1.00  0.00     0.073 C 
ATOM     25  C   UNL     1     -10.165  11.379 -11.256  1.00  0.00     0.073 C 
ATOM     26  C   UNL     1     -11.061  10.220  -8.828  1.00  0.00     0.164 C 
ATOM     27  C   UNL     1     -10.297   9.885 -10.978  1.00  0.00     0.164 C 
ATOM     28  O   UNL     1     -11.354   9.660 -10.085  1.00  0.00    -0.381 OA
ENDBRANCH  22  23
ENDBRANCH  14  22
BRANCH  18  29
ATOM     29  N   UNL     1     -12.427  14.493 -11.762  1.00  0.00    -0.355 N 
ATOM     30  H   UNL     1     -11.493  14.070 -12.008  1.00  0.00     0.163 HD
BRANCH  29  31
ATOM     31  C   UNL     1     -13.318  14.106 -12.596  1.00  0.00     0.102 A 
ATOM     32  C   UNL     1     -13.610  14.742 -13.753  1.00  0.00     0.190 A 
ATOM     33  C   UNL     1     -14.047  12.982 -12.341  1.00  0.00     0.068 A 
ATOM     34  O   UNL     1     -13.093  15.766 -14.204  1.00  0.00    -0.451 OA
ATOM     35  C   UNL     1     -14.559  14.310 -14.594  1.00  0.00     0.168 A 
ATOM     36  C   UNL     1     -15.001  12.557 -13.192  1.00  0.00     0.027 A 
ATOM     37  C   UNL     1     -13.666  16.043 -15.481  1.00  0.00     0.468 C 
ATOM     38  O   UNL     1     -14.662  15.033 -15.585  1.00  0.00    -0.454 OA
ATOM     39  C   UNL     1     -15.270  13.211 -14.330  1.00  0.00     0.052 A 
ATOM     40  Cl  UNL     1     -13.854  12.001 -10.916  1.00  0.00    -0.082 Cl
ENDBRANCH  29  31
ENDBRANCH  18  29
ENDBRANCH   1  11
TORSDOF 8
ENDMDL
MODEL 8
REMARK VINA RESULT:    -8.766      1.976      2.569
REMARK INTER + INTRA:         -14.608
REMARK INTER:                 -12.987
REMARK INTRA:                  -1.621
REMARK UNBOUND:                -1.742
REMARK SMILES CN1CCN(CCOc2cc3c(c(OC4CCOCC4)c2)C(Nc2c(Cl)ccc4c2OCO4)N=CN3)CC1
REMARK SMILES IDX 8 1 7 2 6 3 5 4 2 5 3 6 38 7 4 8 37 9 1 10 9 11 21 12 10 13
REMARK SMILES IDX 13 14 11 15 12 16 36 17 22 18 35 19 34 20 14 22 15 23 16 24
REMARK SMILES IDX 20 25 17 26 19 27 18 28 23 29 24 31 30 32 25 33 31 34 29 35
REMARK SMILES IDX 27 36 32 37 33 38 28 39 26 40
REMARK H PARENT 36 21 23 30
ROOT
ATOM      1  O   UNL     1     -10.468  15.880  -7.871  1.00  0.00    -0.492 OA
ENDROOT
BRANCH   1   2
ATOM      2  C   UNL     1      -9.564  14.824  -7.655  1.00  0.00     0.245 C 
BRANCH   2   3
ATOM      3  C   UNL     1      -8.469  15.188  -6.638  1.00  0.00     0.126 C 
BRANCH   3   4
ATOM      4  N   UNL     1      -8.813  15.018  -5.230  1.00  0.00    -0.297 NA
ATOM      5  N   UNL     1      -8.084  14.175  -2.527  1.00  0.00    -0.304 NA
ATOM      6  C   UNL     1      -8.930  13.357  -3.379  1.00  0.00     0.099 C 
ATOM      7  C   UNL     1      -8.250  15.574  -2.877  1.00  0.00     0.099 C 
ATOM      8  C   UNL     1      -8.655  13.612  -4.868  1.00  0.00     0.100 C 
ATOM      9  C   UNL     1      -7.946  15.808  -4.368  1.00  0.00     0.100 C 
ATOM     10  C   UNL     1      -8.414  13.952  -1.130  1.00  0.00     0.105 C 
ENDBRANCH   3   4
ENDBRANCH   2   3
ENDBRANCH   1   2
BRANCH   1  11
ATOM     11  C   UNL     1     -11.367  15.699  -8.895  1.00  0.00     0.125 A 
ATOM     12  C   UNL     1     -11.274  14.659  -9.744  1.00  0.00     0.093 A 
ATOM     13  C   UNL     1     -12.395  16.528  -9.108  1.00  0.00     0.073 A 
ATOM     14  C   UNL     1     -12.127  14.407 -10.763  1.00  0.00     0.132 A 
ATOM     15  C   UNL     1     -13.263  16.324 -10.110  1.00  0.00     0.054 A 
ATOM     16  C   UNL     1     -13.163  15.268 -10.965  1.00  0.00     0.062 A 
ATOM     17  N   UNL     1     -14.186  17.187 -10.197  1.00  0.00    -0.346 N 
ATOM     18  C   UNL     1     -14.111  15.184 -11.942  1.00  0.00     0.236 C 
ATOM     19  C   UNL     1     -15.018  17.025 -11.127  1.00  0.00     0.193 C 
ATOM     20  N   UNL     1     -15.012  16.087 -11.971  1.00  0.00    -0.246 NA
ATOM     21  H   UNL     1     -14.249  17.945  -9.570  1.00  0.00     0.167 HD
BRANCH  14  22
ATOM     22  O   UNL     1     -11.919  13.313 -11.582  1.00  0.00    -0.490 OA
BRANCH  22  23
ATOM     23  C   UNL     1     -11.992  11.987 -11.120  1.00  0.00     0.178 C 
ATOM     24  C   UNL     1     -13.423  11.506 -10.870  1.00  0.00     0.073 C 
ATOM     25  C   UNL     1     -11.354  11.127 -12.223  1.00  0.00     0.073 C 
ATOM     26  C   UNL     1     -13.476   9.989 -10.727  1.00  0.00     0.164 C 
ATOM     27  C   UNL     1     -11.559   9.639 -11.959  1.00  0.00     0.164 C 
ATOM     28  O   UNL     1     -12.930   9.360 -11.860  1.00  0.00    -0.381 OA
ENDBRANCH  22  23
ENDBRANCH  14  22
BRANCH  18  29
ATOM     29  N   UNL     1     -14.340  14.353 -12.891  1.00  0.00    -0.355 N 
ATOM     30  H   UNL     1     -14.150  13.357 -12.601  1.00  0.00     0.163 HD
BRANCH  29  31
ATOM     31  C   UNL     1     -14.737  14.388 -14.108  1.00  0.00     0.102 A 
ATOM     32  C   UNL     1     -15.875  13.810 -14.557  1.00  0.00     0.190 A 
ATOM     33  C   UNL     1     -13.995  15.039 -15.048  1.00  0.00     0.068 A 
ATOM     34  O   UNL     1     -16.707  13.174 -13.907  1.00  0.00    -0.451 OA
ATOM     35  C   UNL     1     -16.250  13.860 -15.842  1.00  0.00     0.168 A 
ATOM     36  C   UNL     1     -14.380  15.082 -16.339  1.00  0.00     0.027 A 
ATOM     37  C   UNL     1     -17.777  12.804 -14.775  1.00  0.00     0.468 C 
ATOM     38  O   UNL     1     -17.313  13.272 -16.036  1.00  0.00    -0.454 OA
ATOM     39  C   UNL     1     -15.511  14.496 -16.754  1.00  0.00     0.052 A 
ATOM     40  Cl  UNL     1     -12.494  15.852 -14.709  1.00  0.00    -0.082 Cl
ENDBRANCH  29  31
ENDBRANCH  18  29
ENDBRANCH   1  11
TORSDOF 8
ENDMDL
MODEL 9
REMARK VINA RESULT:    -8.707      1.550      2.070
REMARK INTER + INTRA:         -14.521
REMARK INTER:                 -12.845
REMARK INTRA:                  -1.675
REMARK UNBOUND:                -1.742
REMARK SMILES CN1CCN(CCOc2cc3c(c(OC4CCOCC4)c2)C(Nc2c(Cl)ccc4c2OCO4)N=CN3)CC1
REMARK SMILES IDX 8 1 7 2 6 3 5 4 2 5 3 6 38 7 4 8 37 9 1 10 9 11 21 12 10 13
REMARK SMILES IDX 13 14 11 15 12 16 36 17 22 18 35 19 34 20 14 22 15 23 16 24
REMARK SMILES IDX 20 25 17 26 19 27 18 28 23 29 24 31 30 32 25 33 31 34 29 35
REMARK SMILES IDX 27 36 32 37 33 38 28 39 26 40
REMARK H PARENT 36 21 23 30
ROOT
ATOM      1  O   UNL     1      -9.887  12.652  -6.444  1.00  0.00    -0.492 OA
ENDROOT
BRANCH   1   2
ATOM      2  C   UNL     1      -9.001  13.555  -5.828  1.00  0.00     0.245 C 
BRANCH   2   3
ATOM      3  C   UNL     1      -8.730  13.199  -4.356  1.00  0.00     0.126 C 
BRANCH   3   4
ATOM      4  N   UNL     1      -8.151  14.254  -3.532  1.00  0.00    -0.297 NA
ATOM      5  N   UNL     1      -8.480  16.500  -1.691  1.00  0.00    -0.304 NA
ATOM      6  C   UNL     1      -8.180  16.705  -3.097  1.00  0.00     0.099 C 
ATOM      7  C   UNL     1      -7.935  15.226  -1.258  1.00  0.00     0.099 C 
ATOM      8  C   UNL     1      -8.687  15.542  -3.962  1.00  0.00     0.100 C 
ATOM      9  C   UNL     1      -8.477  14.074  -2.125  1.00  0.00     0.100 C 
ATOM     10  C   UNL     1      -7.933  17.588  -0.898  1.00  0.00     0.105 C 
ENDBRANCH   3   4
ENDBRANCH   2   3
ENDBRANCH   1   2
BRANCH   1  11
ATOM     11  C   UNL     1     -10.478  13.091  -7.604  1.00  0.00     0.125 A 
ATOM     12  C   UNL     1     -10.577  12.304  -8.692  1.00  0.00     0.093 A 
ATOM     13  C   UNL     1     -11.003  14.315  -7.728  1.00  0.00     0.073 A 
ATOM     14  C   UNL     1     -11.157  12.661  -9.861  1.00  0.00     0.132 A 
ATOM     15  C   UNL     1     -11.581  14.717  -8.869  1.00  0.00     0.054 A 
ATOM     16  C   UNL     1     -11.678  13.915  -9.966  1.00  0.00     0.062 A 
ATOM     17  N   UNL     1     -12.034  15.901  -8.847  1.00  0.00    -0.346 N 
ATOM     18  C   UNL     1     -12.288  14.453 -11.062  1.00  0.00     0.236 C 
ATOM     19  C   UNL     1     -12.583  16.309  -9.903  1.00  0.00     0.193 C 
ATOM     20  N   UNL     1     -12.721  15.650 -10.970  1.00  0.00    -0.246 NA
ATOM     21  H   UNL     1     -11.960  16.470  -8.047  1.00  0.00     0.167 HD
BRANCH  14  22
ATOM     22  O   UNL     1     -11.183  11.770 -10.918  1.00  0.00    -0.490 OA
BRANCH  22  23
ATOM     23  C   UNL     1     -10.721  10.446 -10.813  1.00  0.00     0.178 C 
ATOM     24  C   UNL     1     -11.838   9.403 -10.870  1.00  0.00     0.073 C 
ATOM     25  C   UNL     1      -9.774  10.241 -12.007  1.00  0.00     0.073 C 
ATOM     26  C   UNL     1     -11.276   8.007 -11.117  1.00  0.00     0.164 C 
ATOM     27  C   UNL     1      -9.364   8.779 -12.150  1.00  0.00     0.164 C 
ATOM     28  O   UNL     1     -10.506   7.979 -12.295  1.00  0.00    -0.381 OA
ENDBRANCH  22  23
ENDBRANCH  14  22
BRANCH  18  29
ATOM     29  N   UNL     1     -12.562  14.011 -12.234  1.00  0.00    -0.355 N 
ATOM     30  H   UNL     1     -11.712  13.621 -12.719  1.00  0.00     0.163 HD
BRANCH  29  31
ATOM     31  C   UNL     1     -13.588  13.908 -12.993  1.00  0.00     0.102 A 
ATOM     32  C   UNL     1     -13.828  14.697 -14.065  1.00  0.00     0.190 A 
ATOM     33  C   UNL     1     -14.529  12.955 -12.739  1.00  0.00     0.068 A 
ATOM     34  O   UNL     1     -13.131  15.618 -14.496  1.00  0.00    -0.451 OA
ATOM     35  C   UNL     1     -14.920  14.565 -14.828  1.00  0.00     0.168 A 
ATOM     36  C   UNL     1     -15.627  12.831 -13.511  1.00  0.00     0.027 A 
ATOM     37  C   UNL     1     -13.736  16.131 -15.683  1.00  0.00     0.468 C 
ATOM     38  O   UNL     1     -14.943  15.380 -15.749  1.00  0.00    -0.454 OA
ATOM     39  C   UNL     1     -15.838  13.630 -14.566  1.00  0.00     0.052 A 
ATOM     40  Cl  UNL     1     -14.441  11.829 -11.414  1.00  0.00    -0.082 Cl
ENDBRANCH  29  31
ENDBRANCH  18  29
ENDBRANCH   1  11
TORSDOF 8
ENDMDL
MODEL 10
REMARK VINA RESULT:    -8.482      2.633      9.267
REMARK INTER + INTRA:         -14.191
REMARK INTER:                 -12.661
REMARK INTRA:                  -1.530
REMARK UNBOUND:                -1.742
REMARK SMILES CN1CCN(CCOc2cc3c(c(OC4CCOCC4)c2)C(Nc2c(Cl)ccc4c2OCO4)N=CN3)CC1
REMARK SMILES IDX 8 1 7 2 6 3 5 4 2 5 3 6 38 7 4 8 37 9 1 10 9 11 21 12 10 13
REMARK SMILES IDX 13 14 11 15 12 16 36 17 22 18 35 19 34 20 14 22 15 23 16 24
REMARK SMILES IDX 20 25 17 26 19 27 18 28 23 29 24 31 30 32 25 33 31 34 29 35
REMARK SMILES IDX 27 36 32 37 33 38 28 39 26 40
REMARK H PARENT 36 21 23 30
ROOT
ATOM      1  O   UNL     1     -13.209  15.965 -10.786  1.00  0.00    -0.492 OA
ENDROOT
BRANCH   1   2
ATOM      2  C   UNL     1     -13.258  14.953 -11.762  1.00  0.00     0.245 C 
BRANCH   2   3
ATOM      3  C   UNL     1     -13.386  15.517 -13.187  1.00  0.00     0.126 C 
BRANCH   3   4
ATOM      4  N   UNL     1     -14.572  15.117 -13.937  1.00  0.00    -0.297 NA
ATOM      5  N   UNL     1     -16.321  13.023 -14.985  1.00  0.00    -0.304 NA
ATOM      6  C   UNL     1     -15.370  13.718 -15.834  1.00  0.00     0.099 C 
ATOM      7  C   UNL     1     -16.734  13.897 -13.902  1.00  0.00     0.099 C 
ATOM      8  C   UNL     1     -14.169  14.243 -15.034  1.00  0.00     0.100 C 
ATOM      9  C   UNL     1     -15.515  14.391 -13.099  1.00  0.00     0.100 C 
ATOM     10  C   UNL     1     -17.470  12.595 -15.764  1.00  0.00     0.105 C 
ENDBRANCH   3   4
ENDBRANCH   2   3
ENDBRANCH   1   2
BRANCH   1  11
ATOM     11  C   UNL     1     -12.205  15.851  -9.855  1.00  0.00     0.125 A 
ATOM     12  C   UNL     1     -11.328  14.830  -9.880  1.00  0.00     0.093 A 
ATOM     13  C   UNL     1     -12.023  16.744  -8.876  1.00  0.00     0.073 A 
ATOM     14  C   UNL     1     -10.308  14.660  -9.008  1.00  0.00     0.132 A 
ATOM     15  C   UNL     1     -11.030  16.614  -7.985  1.00  0.00     0.054 A 
ATOM     16  C   UNL     1     -10.145  15.578  -8.016  1.00  0.00     0.062 A 
ATOM     17  N   UNL     1     -10.976  17.532  -7.112  1.00  0.00    -0.346 N 
ATOM     18  C   UNL     1      -9.187  15.567  -7.046  1.00  0.00     0.236 C 
ATOM     19  C   UNL     1     -10.055  17.439  -6.259  1.00  0.00     0.193 C 
ATOM     20  N   UNL     1      -9.191  16.522  -6.199  1.00  0.00    -0.246 NA
ATOM     21  H   UNL     1     -11.620  18.277  -7.101  1.00  0.00     0.167 HD
BRANCH  14  22
ATOM     22  O   UNL     1      -9.479  13.559  -9.124  1.00  0.00    -0.490 OA
BRANCH  22  23
ATOM     23  C   UNL     1      -9.751  12.485  -9.991  1.00  0.00     0.178 C 
ATOM     24  C   UNL     1      -8.610  12.183 -10.964  1.00  0.00     0.073 C 
ATOM     25  C   UNL     1      -9.980  11.266  -9.083  1.00  0.00     0.073 C 
ATOM     26  C   UNL     1      -8.792  10.817 -11.618  1.00  0.00     0.164 C 
ATOM     27  C   UNL     1     -10.069   9.976  -9.892  1.00  0.00     0.164 C 
ATOM     28  O   UNL     1      -8.899   9.807 -10.645  1.00  0.00    -0.381 OA
ENDBRANCH  22  23
ENDBRANCH  14  22
BRANCH  18  29
ATOM     29  N   UNL     1      -8.209  14.784  -6.770  1.00  0.00    -0.355 N 
ATOM     30  H   UNL     1      -8.126  13.994  -7.462  1.00  0.00     0.163 HD
BRANCH  29  31
ATOM     31  C   UNL     1      -7.293  14.688  -5.881  1.00  0.00     0.102 A 
ATOM     32  C   UNL     1      -6.083  15.288  -5.961  1.00  0.00     0.190 A 
ATOM     33  C   UNL     1      -7.506  13.939  -4.762  1.00  0.00     0.068 A 
ATOM     34  O   UNL     1      -5.658  16.012  -6.864  1.00  0.00    -0.451 OA
ATOM     35  C   UNL     1      -5.146  15.153  -5.014  1.00  0.00     0.168 A 
ATOM     36  C   UNL     1      -6.557  13.807  -3.815  1.00  0.00     0.027 A 
ATOM     37  C   UNL     1      -4.358  16.476  -6.503  1.00  0.00     0.468 C 
ATOM     38  O   UNL     1      -4.123  15.780  -5.284  1.00  0.00    -0.454 OA
ATOM     39  C   UNL     1      -5.366  14.412  -3.925  1.00  0.00     0.052 A 
ATOM     40  Cl  UNL     1      -8.980  13.071  -4.439  1.00  0.00    -0.082 Cl
ENDBRANCH  29  31
ENDBRANCH  18  29
ENDBRANCH   1  11
TORSDOF 8
ENDMDL
