MODEL 1
REMARK VINA RESULT:    -9.155      0.000      0.000
REMARK INTER + INTRA:         -15.224
REMARK INTER:                 -13.437
REMARK INTRA:                  -1.788
REMARK UNBOUND:                -1.788
REMARK SMILES CN1CCN(CCOc2cc3c(c(OC4CCOCC4)c2)C(Nc2c(Cl)ccc4c2OCO4)N=CN3)CC1
REMARK SMILES IDX 8 1 7 2 6 3 5 4 2 5 3 6 38 7 4 8 37 9 1 10 9 11 21 12 10 13
REMARK SMILES IDX 13 14 11 15 12 16 36 17 22 18 35 19 34 20 14 22 15 23 16 24
REMARK SMILES IDX 20 25 17 26 19 27 18 28 23 29 24 31 30 32 25 33 31 34 29 35
REMARK SMILES IDX 27 36 32 37 33 38 28 39 26 40
REMARK H PARENT 36 21 23 30
ROOT
ATOM      1  O   UNL     1      -9.356  16.075  -6.489  1.00  0.00    -0.492 OA
ENDROOT
BRANCH   1   2
ATOM      2  C   UNL     1      -7.987  15.788  -6.649  1.00  0.00     0.245 C 
BRANCH   2   3
ATOM      3  C   UNL     1      -7.478  14.764  -5.621  1.00  0.00     0.126 C 
BRANCH   3   4
ATOM      4  N   UNL     1      -8.137  14.771  -4.319  1.00  0.00    -0.297 NA
ATOM      5  N   UNL     1      -8.361  13.760  -1.586  1.00  0.00    -0.304 NA
ATOM      6  C   UNL     1      -9.269  13.330  -2.635  1.00  0.00     0.099 C 
ATOM      7  C   UNL     1      -7.890  15.103  -1.872  1.00  0.00     0.099 C 
ATOM      8  C   UNL     1      -8.621  13.426  -4.023  1.00  0.00     0.100 C 
ATOM      9  C   UNL     1      -7.223  15.168  -3.259  1.00  0.00     0.100 C 
ATOM     10  C   UNL     1      -9.026  13.713  -0.295  1.00  0.00     0.105 C 
ENDBRANCH   3   4
ENDBRANCH   2   3
ENDBRANCH   1   2
BRANCH   1  11
ATOM     11  C   UNL     1     -10.146  15.857  -7.591  1.00  0.00     0.125 A 
ATOM     12  C   UNL     1      -9.871  14.884  -8.480  1.00  0.00     0.093 A 
ATOM     13  C   UNL     1     -11.241  16.581  -7.850  1.00  0.00     0.073 A 
ATOM     14  C   UNL     1     -10.609  14.601  -9.578  1.00  0.00     0.132 A 
ATOM     15  C   UNL     1     -12.000  16.343  -8.929  1.00  0.00     0.054 A 
ATOM     16  C   UNL     1     -11.715  15.356  -9.824  1.00  0.00     0.062 A 
ATOM     17  N   UNL     1     -13.004  17.106  -9.051  1.00  0.00    -0.346 N 
ATOM     18  C   UNL     1     -12.569  15.227 -10.880  1.00  0.00     0.236 C 
ATOM     19  C   UNL     1     -13.737  16.909 -10.054  1.00  0.00     0.193 C 
ATOM     20  N   UNL     1     -13.561  16.028 -10.940  1.00  0.00    -0.246 NA
ATOM     21  H   UNL     1     -13.201  17.815  -8.395  1.00  0.00     0.167 HD
BRANCH  14  22
ATOM     22  O   UNL     1     -10.216  13.585 -10.429  1.00  0.00    -0.490 OA
BRANCH  22  23
ATOM     23  C   UNL     1     -10.125  12.241 -10.025  1.00  0.00     0.178 C 
ATOM     24  C   UNL     1     -11.196  11.836  -9.010  1.00  0.00     0.073 C 
ATOM     25  C   UNL     1     -10.300  11.409 -11.306  1.00  0.00     0.073 C 
ATOM     26  C   UNL     1     -11.286  10.319  -8.882  1.00  0.00     0.164 C 
ATOM     27  C   UNL     1     -10.444   9.924 -10.992  1.00  0.00     0.164 C 
ATOM     28  O   UNL     1     -11.534   9.725 -10.133  1.00  0.00    -0.381 OA
ENDBRANCH  22  23
ENDBRANCH  14  22
BRANCH  18  29
ATOM     29  N   UNL     1     -12.628  14.432 -11.884  1.00  0.00    -0.355 N 
ATOM     30  H   UNL     1     -11.715  13.932 -12.049  1.00  0.00     0.163 HD
BRANCH  29  31
ATOM     31  C   UNL     1     -13.492  14.068 -12.756  1.00  0.00     0.102 A 
ATOM     32  C   UNL     1     -13.741  14.730 -13.909  1.00  0.00     0.190 A 
ATOM     33  C   UNL     1     -14.236  12.944 -12.550  1.00  0.00     0.068 A 
ATOM     34  O   UNL     1     -13.202  15.761 -14.319  1.00  0.00    -0.451 OA
ATOM     35  C   UNL     1     -14.663  14.323 -14.791  1.00  0.00     0.168 A 
ATOM     36  C   UNL     1     -15.163  12.543 -13.442  1.00  0.00     0.027 A 
ATOM     37  C   UNL     1     -13.730  16.068 -15.609  1.00  0.00     0.468 C 
ATOM     38  O   UNL     1     -14.728  15.067 -15.768  1.00  0.00    -0.454 OA
ATOM     39  C   UNL     1     -15.389  13.223 -14.574  1.00  0.00     0.052 A 
ATOM     40  Cl  UNL     1     -14.097  11.932 -11.140  1.00  0.00    -0.082 Cl
ENDBRANCH  29  31
ENDBRANCH  18  29
ENDBRANCH   1  11
TORSDOF 8
ENDMDL
MODEL 2
REMARK VINA RESULT:    -9.089      1.569      2.034
REMARK INTER + INTRA:         -15.127
REMARK INTER:                 -13.212
REMARK INTRA:                  -1.915
REMARK UNBOUND:                -1.788
REMARK SMILES CN1CCN(CCOc2cc3c(c(OC4CCOCC4)c2)C(Nc2c(Cl)ccc4c2OCO4)N=CN3)CC1
REMARK SMILES IDX 8 1 7 2 6 3 5 4 2 5 3 6 38 7 4 8 37 9 1 10 9 11 21 12 10 13
REMARK SMILES IDX 13 14 11 15 12 16 36 17 22 18 35 19 34 20 14 22 15 23 16 24
REMARK SMILES IDX 20 25 17 26 19 27 18 28 23 29 24 31 30 32 25 33 31 34 29 35
REMARK SMILES IDX 27 36 32 37 33 38 28 39 26 40
REMARK H PARENT 36 21 23 30
ROOT
ATOM      1  O   UNL     1      -9.408  16.300  -6.263  1.00  0.00    -0.492 OA
ENDROOT
BRANCH   1   2
ATOM      2  C   UNL     1      -8.033  16.017  -6.358  1.00  0.00     0.245 C 
BRANCH   2   3
ATOM      3  C   UNL     1      -7.593  14.908  -5.387  1.00  0.00     0.126 C 
BRANCH   3   4
ATOM      4  N   UNL     1      -8.283  14.862  -4.103  1.00  0.00    -0.297 NA
ATOM      5  N   UNL     1      -8.487  13.846  -1.370  1.00  0.00    -0.304 NA
ATOM      6  C   UNL     1      -9.326  13.333  -2.438  1.00  0.00     0.099 C 
ATOM      7  C   UNL     1      -8.129  15.224  -1.651  1.00  0.00     0.099 C 
ATOM      8  C   UNL     1      -8.654  13.481  -3.811  1.00  0.00     0.100 C 
ATOM      9  C   UNL     1      -7.435  15.343  -3.022  1.00  0.00     0.100 C 
ATOM     10  C   UNL     1      -9.179  13.746  -0.096  1.00  0.00     0.105 C 
ENDBRANCH   3   4
ENDBRANCH   2   3
ENDBRANCH   1   2
BRANCH   1  11
ATOM     11  C   UNL     1     -10.149  16.054  -7.393  1.00  0.00     0.125 A 
ATOM     12  C   UNL     1      -9.800  15.100  -8.277  1.00  0.00     0.093 A 
ATOM     13  C   UNL     1     -11.266  16.731  -7.686  1.00  0.00     0.073 A 
ATOM     14  C   UNL     1     -10.486  14.793  -9.401  1.00  0.00     0.132 A 
ATOM     15  C   UNL     1     -11.975  16.467  -8.792  1.00  0.00     0.054 A 
ATOM     16  C   UNL     1     -11.617  15.499  -9.682  1.00  0.00     0.062 A 
ATOM     17  N   UNL     1     -13.008  17.185  -8.945  1.00  0.00    -0.346 N 
ATOM     18  C   UNL     1     -12.427  15.339 -10.767  1.00  0.00     0.236 C 
ATOM     19  C   UNL     1     -13.697  16.963  -9.974  1.00  0.00     0.193 C 
ATOM     20  N   UNL     1     -13.451  16.096 -10.857  1.00  0.00    -0.246 NA
ATOM     21  H   UNL     1     -13.259  17.880  -8.293  1.00  0.00     0.167 HD
BRANCH  14  22
ATOM     22  O   UNL     1     -10.020  13.801 -10.244  1.00  0.00    -0.490 OA
BRANCH  22  23
ATOM     23  C   UNL     1      -9.887  12.459  -9.845  1.00  0.00     0.178 C 
ATOM     24  C   UNL     1     -10.937  12.020  -8.824  1.00  0.00     0.073 C 
ATOM     25  C   UNL     1     -10.049  11.627 -11.128  1.00  0.00     0.073 C 
ATOM     26  C   UNL     1     -10.984  10.500  -8.700  1.00  0.00     0.164 C 
ATOM     27  C   UNL     1     -10.148  10.137 -10.818  1.00  0.00     0.164 C 
ATOM     28  O   UNL     1     -11.224   9.903  -9.951  1.00  0.00    -0.381 OA
ENDBRANCH  22  23
ENDBRANCH  14  22
BRANCH  18  29
ATOM     29  N   UNL     1     -12.416  14.550 -11.777  1.00  0.00    -0.355 N 
ATOM     30  H   UNL     1     -11.450  14.438 -12.183  1.00  0.00     0.163 HD
BRANCH  29  31
ATOM     31  C   UNL     1     -13.256  13.849 -12.443  1.00  0.00     0.102 A 
ATOM     32  C   UNL     1     -13.779  12.676 -12.019  1.00  0.00     0.190 A 
ATOM     33  C   UNL     1     -13.679  14.275 -13.667  1.00  0.00     0.068 A 
ATOM     34  O   UNL     1     -13.558  12.090 -10.957  1.00  0.00    -0.451 OA
ATOM     35  C   UNL     1     -14.648  11.967 -12.751  1.00  0.00     0.168 A 
ATOM     36  C   UNL     1     -14.551  13.553 -14.397  1.00  0.00     0.027 A 
ATOM     37  C   UNL     1     -14.374  10.921 -10.902  1.00  0.00     0.468 C 
ATOM     38  O   UNL     1     -14.998  10.934 -12.181  1.00  0.00    -0.454 OA
ATOM     39  C   UNL     1     -15.050  12.392 -13.951  1.00  0.00     0.052 A 
ATOM     40  Cl  UNL     1     -13.143  15.749 -14.422  1.00  0.00    -0.082 Cl
ENDBRANCH  29  31
ENDBRANCH  18  29
ENDBRANCH   1  11
TORSDOF 8
ENDMDL
MODEL 3
REMARK VINA RESULT:    -8.943      2.835      3.936
REMARK INTER + INTRA:         -14.913
REMARK INTER:                 -12.712
REMARK INTRA:                  -2.201
REMARK UNBOUND:                -1.788
REMARK SMILES CN1CCN(CCOc2cc3c(c(OC4CCOCC4)c2)C(Nc2c(Cl)ccc4c2OCO4)N=CN3)CC1
REMARK SMILES IDX 8 1 7 2 6 3 5 4 2 5 3 6 38 7 4 8 37 9 1 10 9 11 21 12 10 13
REMARK SMILES IDX 13 14 11 15 12 16 36 17 22 18 35 19 34 20 14 22 15 23 16 24
REMARK SMILES IDX 20 25 17 26 19 27 18 28 23 29 24 31 30 32 25 33 31 34 29 35
REMARK SMILES IDX 27 36 32 37 33 38 28 39 26 40
REMARK H PARENT 36 21 23 30
ROOT
ATOM      1  O   UNL     1     -10.682  16.063  -8.029  1.00  0.00    -0.492 OA
ENDROOT
BRANCH   1   2
ATOM      2  C   UNL     1      -9.646  15.118  -7.901  1.00  0.00     0.245 C 
BRANCH   2   3
ATOM      3  C   UNL     1      -9.986  14.007  -6.894  1.00  0.00     0.126 C 
BRANCH   3   4
ATOM      4  N   UNL     1      -9.556  12.659  -7.250  1.00  0.00    -0.297 NA
ATOM      5  N   UNL     1      -9.217  10.550  -9.246  1.00  0.00    -0.304 NA
ATOM      6  C   UNL     1     -10.303  10.521  -8.282  1.00  0.00     0.099 C 
ATOM      7  C   UNL     1      -8.084  11.261  -8.679  1.00  0.00     0.099 C 
ATOM      8  C   UNL     1     -10.689  11.932  -7.815  1.00  0.00     0.100 C 
ATOM      9  C   UNL     1      -8.490  12.681  -8.241  1.00  0.00     0.100 C 
ATOM     10  C   UNL     1      -8.839   9.198  -9.618  1.00  0.00     0.105 C 
ENDBRANCH   3   4
ENDBRANCH   2   3
ENDBRANCH   1   2
BRANCH   1  11
ATOM     11  C   UNL     1     -11.572  15.841  -9.051  1.00  0.00     0.125 A 
ATOM     12  C   UNL     1     -11.440  14.798  -9.892  1.00  0.00     0.093 A 
ATOM     13  C   UNL     1     -12.630  16.629  -9.272  1.00  0.00     0.073 A 
ATOM     14  C   UNL     1     -12.283  14.508 -10.910  1.00  0.00     0.132 A 
ATOM     15  C   UNL     1     -13.489  16.386 -10.272  1.00  0.00     0.054 A 
ATOM     16  C   UNL     1     -13.349  15.329 -11.119  1.00  0.00     0.062 A 
ATOM     17  N   UNL     1     -14.443  17.215 -10.366  1.00  0.00    -0.346 N 
ATOM     18  C   UNL     1     -14.293  15.202 -12.096  1.00  0.00     0.236 C 
ATOM     19  C   UNL     1     -15.268  17.015 -11.295  1.00  0.00     0.193 C 
ATOM     20  N   UNL     1     -15.227  16.072 -12.132  1.00  0.00    -0.246 NA
ATOM     21  H   UNL     1     -14.535  17.974  -9.745  1.00  0.00     0.167 HD
BRANCH  14  22
ATOM     22  O   UNL     1     -12.034  13.416 -11.721  1.00  0.00    -0.490 OA
BRANCH  22  23
ATOM     23  C   UNL     1     -12.021  12.094 -11.240  1.00  0.00     0.178 C 
ATOM     24  C   UNL     1     -13.412  11.552 -10.909  1.00  0.00     0.073 C 
ATOM     25  C   UNL     1     -11.402  11.250 -12.366  1.00  0.00     0.073 C 
ATOM     26  C   UNL     1     -13.388  10.036 -10.747  1.00  0.00     0.164 C 
ATOM     27  C   UNL     1     -11.524   9.757 -12.076  1.00  0.00     0.164 C 
ATOM     28  O   UNL     1     -12.873   9.417 -11.901  1.00  0.00    -0.381 OA
ENDBRANCH  22  23
ENDBRANCH  14  22
BRANCH  18  29
ATOM     29  N   UNL     1     -14.490  14.356 -13.039  1.00  0.00    -0.355 N 
ATOM     30  H   UNL     1     -14.310  13.366 -12.727  1.00  0.00     0.163 HD
BRANCH  29  31
ATOM     31  C   UNL     1     -14.848  14.372 -14.268  1.00  0.00     0.102 A 
ATOM     32  C   UNL     1     -15.941  13.741 -14.755  1.00  0.00     0.190 A 
ATOM     33  C   UNL     1     -14.106  15.057 -15.184  1.00  0.00     0.068 A 
ATOM     34  O   UNL     1     -16.764  13.067 -14.132  1.00  0.00    -0.451 OA
ATOM     35  C   UNL     1     -16.275  13.773 -16.051  1.00  0.00     0.168 A 
ATOM     36  C   UNL     1     -14.448  15.081 -16.487  1.00  0.00     0.027 A 
ATOM     37  C   UNL     1     -17.786  12.646 -15.034  1.00  0.00     0.468 C 
ATOM     38  O   UNL     1     -17.302  13.135 -16.280  1.00  0.00    -0.454 OA
ATOM     39  C   UNL     1     -15.536  14.443 -16.940  1.00  0.00     0.052 A 
ATOM     40  Cl  UNL     1     -12.657  15.941 -14.797  1.00  0.00    -0.082 Cl
ENDBRANCH  29  31
ENDBRANCH  18  29
ENDBRANCH   1  11
TORSDOF 8
ENDMDL
MODEL 4
REMARK VINA RESULT:    -8.913      2.458      3.108
REMARK INTER + INTRA:         -14.869
REMARK INTER:                 -13.271
REMARK INTRA:                  -1.598
REMARK UNBOUND:                -1.788
REMARK SMILES CN1CCN(CCOc2cc3c(c(OC4CCOCC4)c2)C(Nc2c(Cl)ccc4c2OCO4)N=CN3)CC1
REMARK SMILES IDX 8 1 7 2 6 3 5 4 2 5 3 6 38 7 4 8 37 9 1 10 9 11 21 12 10 13
REMARK SMILES IDX 13 14 11 15 12 16 36 17 22 18 35 19 34 20 14 22 15 23 16 24
REMARK SMILES IDX 20 25 17 26 19 27 18 28 23 29 24 31 30 32 25 33 31 34 29 35
REMARK SMILES IDX 27 36 32 37 33 38 28 39 26 40
REMARK H PARENT 36 21 23 30
ROOT
ATOM      1  O   UNL     1      -9.213  16.090  -6.389  1.00  0.00    -0.492 OA
ENDROOT
BRANCH   1   2
ATOM      2  C   UNL     1      -8.740  17.403  -6.209  1.00  0.00     0.245 C 
BRANCH   2   3
ATOM      3  C   UNL     1      -7.402  17.447  -5.450  1.00  0.00     0.126 C 
BRANCH   3   4
ATOM      4  N   UNL     1      -7.093  18.692  -4.756  1.00  0.00    -0.297 NA
ATOM      5  N   UNL     1      -7.504  21.564  -4.399  1.00  0.00    -0.304 NA
ATOM      6  C   UNL     1      -6.337  21.040  -5.088  1.00  0.00     0.099 C 
ATOM      7  C   UNL     1      -7.967  20.595  -3.423  1.00  0.00     0.099 C 
ATOM      8  C   UNL     1      -6.619  19.673  -5.728  1.00  0.00     0.100 C 
ATOM      9  C   UNL     1      -8.267  19.240  -4.092  1.00  0.00     0.100 C 
ATOM     10  C   UNL     1      -7.182  22.826  -3.756  1.00  0.00     0.105 C 
ENDBRANCH   3   4
ENDBRANCH   2   3
ENDBRANCH   1   2
BRANCH   1  11
ATOM     11  C   UNL     1     -10.018  15.889  -7.484  1.00  0.00     0.125 A 
ATOM     12  C   UNL     1      -9.757  14.926  -8.388  1.00  0.00     0.093 A 
ATOM     13  C   UNL     1     -11.113  16.619  -7.719  1.00  0.00     0.073 A 
ATOM     14  C   UNL     1     -10.510  14.660  -9.480  1.00  0.00     0.132 A 
ATOM     15  C   UNL     1     -11.887  16.397  -8.791  1.00  0.00     0.054 A 
ATOM     16  C   UNL     1     -11.618  15.421  -9.702  1.00  0.00     0.062 A 
ATOM     17  N   UNL     1     -12.891  17.165  -8.890  1.00  0.00    -0.346 N 
ATOM     18  C   UNL     1     -12.486  15.308 -10.748  1.00  0.00     0.236 C 
ATOM     19  C   UNL     1     -13.638  16.983  -9.886  1.00  0.00     0.193 C 
ATOM     20  N   UNL     1     -13.476  16.113 -10.785  1.00  0.00    -0.246 NA
ATOM     21  H   UNL     1     -13.076  17.866  -8.223  1.00  0.00     0.167 HD
BRANCH  14  22
ATOM     22  O   UNL     1     -10.132  13.654 -10.349  1.00  0.00    -0.490 OA
BRANCH  22  23
ATOM     23  C   UNL     1     -10.011  12.308  -9.955  1.00  0.00     0.178 C 
ATOM     24  C   UNL     1     -11.026  11.891  -8.890  1.00  0.00     0.073 C 
ATOM     25  C   UNL     1     -10.243  11.480 -11.230  1.00  0.00     0.073 C 
ATOM     26  C   UNL     1     -11.098  10.373  -8.764  1.00  0.00     0.164 C 
ATOM     27  C   UNL     1     -10.360   9.993 -10.915  1.00  0.00     0.164 C 
ATOM     28  O   UNL     1     -11.404   9.781 -10.004  1.00  0.00    -0.381 OA
ENDBRANCH  22  23
ENDBRANCH  14  22
BRANCH  18  29
ATOM     29  N   UNL     1     -12.561  14.526 -11.761  1.00  0.00    -0.355 N 
ATOM     30  H   UNL     1     -11.642  14.053 -11.966  1.00  0.00     0.163 HD
BRANCH  29  31
ATOM     31  C   UNL     1     -13.446  14.152 -12.608  1.00  0.00     0.102 A 
ATOM     32  C   UNL     1     -13.736  14.811 -13.753  1.00  0.00     0.190 A 
ATOM     33  C   UNL     1     -14.170  13.020 -12.379  1.00  0.00     0.068 A 
ATOM     34  O   UNL     1     -13.221  15.847 -14.179  1.00  0.00    -0.451 OA
ATOM     35  C   UNL     1     -14.678  14.393 -14.607  1.00  0.00     0.168 A 
ATOM     36  C   UNL     1     -15.119  12.608 -13.243  1.00  0.00     0.027 A 
ATOM     37  C   UNL     1     -13.789  16.148 -15.453  1.00  0.00     0.468 C 
ATOM     38  O   UNL     1     -14.780  15.136 -15.582  1.00  0.00    -0.454 OA
ATOM     39  C   UNL     1     -15.385  13.285 -14.369  1.00  0.00     0.052 A 
ATOM     40  Cl  UNL     1     -13.980  12.010 -10.974  1.00  0.00    -0.082 Cl
ENDBRANCH  29  31
ENDBRANCH  18  29
ENDBRANCH   1  11
TORSDOF 8
ENDMDL
MODEL 5
REMARK VINA RESULT:    -8.895      1.657      2.473
REMARK INTER + INTRA:         -14.842
REMARK INTER:                 -12.867
REMARK INTRA:                  -1.975
REMARK UNBOUND:                -1.788
REMARK SMILES CN1CCN(CCOc2cc3c(c(OC4CCOCC4)c2)C(Nc2c(Cl)ccc4c2OCO4)N=CN3)CC1
REMARK SMILES IDX 8 1 7 2 6 3 5 4 2 5 3 6 38 7 4 8 37 9 1 10 9 11 21 12 10 13
REMARK SMILES IDX 13 14 11 15 12 16 36 17 22 18 35 19 34 20 14 22 15 23 16 24
REMARK SMILES IDX 20 25 17 26 19 27 18 28 23 29 24 31 30 32 25 33 31 34 29 35
REMARK SMILES IDX 27 36 32 37 33 38 28 39 26 40
REMARK H PARENT 36 21 23 30
ROOT
ATOM      1  O   UNL     1     -10.173  12.561  -6.504  1.00  0.00    -0.492 OA
ENDROOT
BRANCH   1   2
ATOM      2  C   UNL     1      -8.794  12.279  -6.539  1.00  0.00     0.245 C 
BRANCH   2   3
ATOM      3  C   UNL     1      -7.994  13.140  -5.547  1.00  0.00     0.126 C 
BRANCH   3   4
ATOM      4  N   UNL     1      -8.470  14.504  -5.344  1.00  0.00    -0.297 NA
ATOM      5  N   UNL     1      -7.930  17.315  -4.752  1.00  0.00    -0.304 NA
ATOM      6  C   UNL     1      -8.466  16.414  -3.748  1.00  0.00     0.099 C 
ATOM      7  C   UNL     1      -8.345  16.874  -6.072  1.00  0.00     0.099 C 
ATOM      8  C   UNL     1      -8.064  14.956  -4.017  1.00  0.00     0.100 C 
ATOM      9  C   UNL     1      -7.909  15.419  -6.327  1.00  0.00     0.100 C 
ATOM     10  C   UNL     1      -8.381  18.673  -4.500  1.00  0.00     0.105 C 
ENDBRANCH   3   4
ENDBRANCH   2   3
ENDBRANCH   1   2
BRANCH   1  11
ATOM     11  C   UNL     1     -10.722  13.009  -7.680  1.00  0.00     0.125 A 
ATOM     12  C   UNL     1     -10.843  12.211  -8.757  1.00  0.00     0.093 A 
ATOM     13  C   UNL     1     -11.184  14.256  -7.832  1.00  0.00     0.073 A 
ATOM     14  C   UNL     1     -11.385  12.577  -9.940  1.00  0.00     0.132 A 
ATOM     15  C   UNL     1     -11.724  14.667  -8.988  1.00  0.00     0.054 A 
ATOM     16  C   UNL     1     -11.843  13.853 -10.074  1.00  0.00     0.062 A 
ATOM     17  N   UNL     1     -12.117  15.872  -8.992  1.00  0.00    -0.346 N 
ATOM     18  C   UNL     1     -12.407  14.402 -11.188  1.00  0.00     0.236 C 
ATOM     19  C   UNL     1     -12.629  16.290 -10.063  1.00  0.00     0.193 C 
ATOM     20  N   UNL     1     -12.782  15.621 -11.122  1.00  0.00    -0.246 NA
ATOM     21  H   UNL     1     -12.028  16.450  -8.199  1.00  0.00     0.167 HD
BRANCH  14  22
ATOM     22  O   UNL     1     -11.439  11.672 -10.984  1.00  0.00    -0.490 OA
BRANCH  22  23
ATOM     23  C   UNL     1     -10.975  10.348 -10.872  1.00  0.00     0.178 C 
ATOM     24  C   UNL     1     -11.999   9.303 -11.319  1.00  0.00     0.073 C 
ATOM     25  C   UNL     1      -9.736  10.265 -11.778  1.00  0.00     0.073 C 
ATOM     26  C   UNL     1     -11.342   7.942 -11.524  1.00  0.00     0.164 C 
ATOM     27  C   UNL     1      -9.252   8.827 -11.930  1.00  0.00     0.164 C 
ATOM     28  O   UNL     1     -10.284   8.031 -12.447  1.00  0.00    -0.381 OA
ENDBRANCH  22  23
ENDBRANCH  14  22
BRANCH  18  29
ATOM     29  N   UNL     1     -12.684  13.956 -12.357  1.00  0.00    -0.355 N 
ATOM     30  H   UNL     1     -11.854  13.491 -12.811  1.00  0.00     0.163 HD
BRANCH  29  31
ATOM     31  C   UNL     1     -13.695  13.914 -13.142  1.00  0.00     0.102 A 
ATOM     32  C   UNL     1     -13.878  14.738 -14.198  1.00  0.00     0.190 A 
ATOM     33  C   UNL     1     -14.679  12.993 -12.935  1.00  0.00     0.068 A 
ATOM     34  O   UNL     1     -13.135  15.641 -14.589  1.00  0.00    -0.451 OA
ATOM     35  C   UNL     1     -14.956  14.670 -14.989  1.00  0.00     0.168 A 
ATOM     36  C   UNL     1     -15.762  12.934 -13.734  1.00  0.00     0.027 A 
ATOM     37  C   UNL     1     -13.691  16.208 -15.775  1.00  0.00     0.468 C 
ATOM     38  O   UNL     1     -14.924  15.509 -15.888  1.00  0.00    -0.454 OA
ATOM     39  C   UNL     1     -15.917  13.767 -14.772  1.00  0.00     0.052 A 
ATOM     40  Cl  UNL     1     -14.667  11.832 -11.639  1.00  0.00    -0.082 Cl
ENDBRANCH  29  31
ENDBRANCH  18  29
ENDBRANCH   1  11
TORSDOF 8
ENDMDL
MODEL 6
REMARK VINA RESULT:    -8.885      1.608      2.474
REMARK INTER + INTRA:         -14.827
REMARK INTER:                 -12.683
REMARK INTRA:                  -2.144
REMARK UNBOUND:                -1.788
REMARK SMILES CN1CCN(CCOc2cc3c(c(OC4CCOCC4)c2)C(Nc2c(Cl)ccc4c2OCO4)N=CN3)CC1
REMARK SMILES IDX 8 1 7 2 6 3 5 4 2 5 3 6 38 7 4 8 37 9 1 10 9 11 21 12 10 13
REMARK SMILES IDX 13 14 11 15 12 16 36 17 22 18 35 19 34 20 14 22 15 23 16 24
REMARK SMILES IDX 20 25 17 26 19 27 18 28 23 29 24 31 30 32 25 33 31 34 29 35
REMARK SMILES IDX 27 36 32 37 33 38 28 39 26 40
REMARK H PARENT 36 21 23 30
ROOT
ATOM      1  O   UNL     1      -9.470  15.792  -6.628  1.00  0.00    -0.492 OA
ENDROOT
BRANCH   1   2
ATOM      2  C   UNL     1      -8.278  15.044  -6.611  1.00  0.00     0.245 C 
BRANCH   2   3
ATOM      3  C   UNL     1      -8.189  14.108  -5.394  1.00  0.00     0.126 C 
BRANCH   3   4
ATOM      4  N   UNL     1      -7.926  12.701  -5.678  1.00  0.00    -0.297 NA
ATOM      5  N   UNL     1      -7.554  10.530  -7.599  1.00  0.00    -0.304 NA
ATOM      6  C   UNL     1      -8.798  10.697  -6.869  1.00  0.00     0.099 C 
ATOM      7  C   UNL     1      -6.454  11.054  -6.810  1.00  0.00     0.099 C 
ATOM      8  C   UNL     1      -9.030  12.161  -6.466  1.00  0.00     0.100 C 
ATOM      9  C   UNL     1      -6.698  12.530  -6.439  1.00  0.00     0.100 C 
ATOM     10  C   UNL     1      -7.339   9.127  -7.910  1.00  0.00     0.105 C 
ENDBRANCH   3   4
ENDBRANCH   2   3
ENDBRANCH   1   2
BRANCH   1  11
ATOM     11  C   UNL     1     -10.256  15.640  -7.744  1.00  0.00     0.125 A 
ATOM     12  C   UNL     1      -9.997  14.700  -8.672  1.00  0.00     0.093 A 
ATOM     13  C   UNL     1     -11.332  16.399  -7.979  1.00  0.00     0.073 A 
ATOM     14  C   UNL     1     -10.732  14.481  -9.786  1.00  0.00     0.132 A 
ATOM     15  C   UNL     1     -12.088  16.226  -9.072  1.00  0.00     0.054 A 
ATOM     16  C   UNL     1     -11.820  15.271 -10.007  1.00  0.00     0.062 A 
ATOM     17  N   UNL     1     -13.074  17.016  -9.168  1.00  0.00    -0.346 N 
ATOM     18  C   UNL     1     -12.668  15.207 -11.073  1.00  0.00     0.236 C 
ATOM     19  C   UNL     1     -13.804  16.880 -10.183  1.00  0.00     0.193 C 
ATOM     20  N   UNL     1     -13.641  16.033 -11.105  1.00  0.00    -0.246 NA
ATOM     21  H   UNL     1     -13.259  17.700  -8.483  1.00  0.00     0.167 HD
BRANCH  14  22
ATOM     22  O   UNL     1     -10.357  13.494 -10.678  1.00  0.00    -0.490 OA
BRANCH  22  23
ATOM     23  C   UNL     1     -10.325  12.129 -10.339  1.00  0.00     0.178 C 
ATOM     24  C   UNL     1     -11.410  11.724  -9.340  1.00  0.00     0.073 C 
ATOM     25  C   UNL     1     -10.540  11.369 -11.658  1.00  0.00     0.073 C 
ATOM     26  C   UNL     1     -11.568  10.208  -9.284  1.00  0.00     0.164 C 
ATOM     27  C   UNL     1     -10.749   9.878 -11.414  1.00  0.00     0.164 C 
ATOM     28  O   UNL     1     -11.845   9.686 -10.561  1.00  0.00    -0.381 OA
ENDBRANCH  22  23
ENDBRANCH  14  22
BRANCH  18  29
ATOM     29  N   UNL     1     -12.738  14.458 -12.111  1.00  0.00    -0.355 N 
ATOM     30  H   UNL     1     -11.817  13.993 -12.327  1.00  0.00     0.163 HD
BRANCH  29  31
ATOM     31  C   UNL     1     -13.619  14.110 -12.972  1.00  0.00     0.102 A 
ATOM     32  C   UNL     1     -13.862  14.770 -14.128  1.00  0.00     0.190 A 
ATOM     33  C   UNL     1     -14.389  13.007 -12.750  1.00  0.00     0.068 A 
ATOM     34  O   UNL     1     -13.301  15.783 -14.551  1.00  0.00    -0.451 OA
ATOM     35  C   UNL     1     -14.802  14.379 -14.998  1.00  0.00     0.168 A 
ATOM     36  C   UNL     1     -15.335  12.623 -13.630  1.00  0.00     0.027 A 
ATOM     37  C   UNL     1     -13.832  16.094 -15.838  1.00  0.00     0.468 C 
ATOM     38  O   UNL     1     -14.857  15.117 -15.980  1.00  0.00    -0.454 OA
ATOM     39  C   UNL     1     -15.554  13.300 -14.766  1.00  0.00     0.052 A 
ATOM     40  Cl  UNL     1     -14.264  12.002 -11.334  1.00  0.00    -0.082 Cl
ENDBRANCH  29  31
ENDBRANCH  18  29
ENDBRANCH   1  11
TORSDOF 8
ENDMDL
MODEL 7
REMARK VINA RESULT:    -8.807      2.052      3.069
REMARK INTER + INTRA:         -14.714
REMARK INTER:                 -12.420
REMARK INTRA:                  -2.294
REMARK UNBOUND:                -1.788
REMARK SMILES CN1CCN(CCOc2cc3c(c(OC4CCOCC4)c2)C(Nc2c(Cl)ccc4c2OCO4)N=CN3)CC1
REMARK SMILES IDX 8 1 7 2 6 3 5 4 2 5 3 6 38 7 4 8 37 9 1 10 9 11 21 12 10 13
REMARK SMILES IDX 13 14 11 15 12 16 36 17 22 18 35 19 34 20 14 22 15 23 16 24
REMARK SMILES IDX 20 25 17 26 19 27 18 28 23 29 24 31 30 32 25 33 31 34 29 35
REMARK SMILES IDX 27 36 32 37 33 38 28 39 26 40
REMARK H PARENT 36 21 23 30
ROOT
ATOM      1  O   UNL     1      -9.466  16.218  -6.185  1.00  0.00    -0.492 OA
ENDROOT
BRANCH   1   2
ATOM      2  C   UNL     1      -8.285  15.463  -6.053  1.00  0.00     0.245 C 
BRANCH   2   3
ATOM      3  C   UNL     1      -8.407  14.363  -4.986  1.00  0.00     0.126 C 
BRANCH   3   4
ATOM      4  N   UNL     1      -7.960  13.030  -5.376  1.00  0.00    -0.297 NA
ATOM      5  N   UNL     1      -7.452  11.034  -7.450  1.00  0.00    -0.304 NA
ATOM      6  C   UNL     1      -8.627  10.967  -6.599  1.00  0.00     0.099 C 
ATOM      7  C   UNL     1      -6.372  11.692  -6.738  1.00  0.00     0.099 C 
ATOM      8  C   UNL     1      -9.040  12.356  -6.089  1.00  0.00     0.100 C 
ATOM      9  C   UNL     1      -6.803  13.091  -6.258  1.00  0.00     0.100 C 
ATOM     10  C   UNL     1      -7.056   9.699  -7.863  1.00  0.00     0.105 C 
ENDBRANCH   3   4
ENDBRANCH   2   3
ENDBRANCH   1   2
BRANCH   1  11
ATOM     11  C   UNL     1     -10.184  16.007  -7.337  1.00  0.00     0.125 A 
ATOM     12  C   UNL     1      -9.825  15.072  -8.236  1.00  0.00     0.093 A 
ATOM     13  C   UNL     1     -11.288  16.701  -7.636  1.00  0.00     0.073 A 
ATOM     14  C   UNL     1     -10.490  14.798  -9.382  1.00  0.00     0.132 A 
ATOM     15  C   UNL     1     -11.977  16.471  -8.763  1.00  0.00     0.054 A 
ATOM     16  C   UNL     1     -11.608  15.522  -9.669  1.00  0.00     0.062 A 
ATOM     17  N   UNL     1     -13.000  17.202  -8.920  1.00  0.00    -0.346 N 
ATOM     18  C   UNL     1     -12.396  15.396 -10.775  1.00  0.00     0.236 C 
ATOM     19  C   UNL     1     -13.668  17.012  -9.968  1.00  0.00     0.193 C 
ATOM     20  N   UNL     1     -13.412  16.165 -10.868  1.00  0.00    -0.246 NA
ATOM     21  H   UNL     1     -13.258  17.883  -8.256  1.00  0.00     0.167 HD
BRANCH  14  22
ATOM     22  O   UNL     1     -10.014  13.824 -10.239  1.00  0.00    -0.490 OA
BRANCH  22  23
ATOM     23  C   UNL     1      -9.935  12.465  -9.882  1.00  0.00     0.178 C 
ATOM     24  C   UNL     1     -11.133  11.978  -9.066  1.00  0.00     0.073 C 
ATOM     25  C   UNL     1      -9.876  11.691 -11.210  1.00  0.00     0.073 C 
ATOM     26  C   UNL     1     -11.183  10.454  -9.018  1.00  0.00     0.164 C 
ATOM     27  C   UNL     1     -10.009  10.188 -10.985  1.00  0.00     0.164 C 
ATOM     28  O   UNL     1     -11.210   9.913 -10.317  1.00  0.00    -0.381 OA
ENDBRANCH  22  23
ENDBRANCH  14  22
BRANCH  18  29
ATOM     29  N   UNL     1     -12.371  14.632 -11.803  1.00  0.00    -0.355 N 
ATOM     30  H   UNL     1     -11.403  14.548 -12.211  1.00  0.00     0.163 HD
BRANCH  29  31
ATOM     31  C   UNL     1     -13.198  13.932 -12.486  1.00  0.00     0.102 A 
ATOM     32  C   UNL     1     -13.749  12.772 -12.064  1.00  0.00     0.190 A 
ATOM     33  C   UNL     1     -13.576  14.347 -13.729  1.00  0.00     0.068 A 
ATOM     34  O   UNL     1     -13.569  12.198 -10.987  1.00  0.00    -0.451 OA
ATOM     35  C   UNL     1     -14.602  12.063 -12.814  1.00  0.00     0.168 A 
ATOM     36  C   UNL     1     -14.434  13.626 -14.477  1.00  0.00     0.027 A 
ATOM     37  C   UNL     1     -14.400  11.039 -10.944  1.00  0.00     0.468 C 
ATOM     38  O   UNL     1     -14.983  11.043 -12.241  1.00  0.00    -0.454 OA
ATOM     39  C   UNL     1     -14.961  12.477 -14.032  1.00  0.00     0.052 A 
ATOM     40  Cl  UNL     1     -12.998  15.804 -14.486  1.00  0.00    -0.082 Cl
ENDBRANCH  29  31
ENDBRANCH  18  29
ENDBRANCH   1  11
TORSDOF 8
ENDMDL
MODEL 8
REMARK VINA RESULT:    -8.757      2.876      3.741
REMARK INTER + INTRA:         -14.640
REMARK INTER:                 -12.877
REMARK INTRA:                  -1.763
REMARK UNBOUND:                -1.788
REMARK SMILES CN1CCN(CCOc2cc3c(c(OC4CCOCC4)c2)C(Nc2c(Cl)ccc4c2OCO4)N=CN3)CC1
REMARK SMILES IDX 8 1 7 2 6 3 5 4 2 5 3 6 38 7 4 8 37 9 1 10 9 11 21 12 10 13
REMARK SMILES IDX 13 14 11 15 12 16 36 17 22 18 35 19 34 20 14 22 15 23 16 24
REMARK SMILES IDX 20 25 17 26 19 27 18 28 23 29 24 31 30 32 25 33 31 34 29 35
REMARK SMILES IDX 27 36 32 37 33 38 28 39 26 40
REMARK H PARENT 36 21 23 30
ROOT
ATOM      1  O   UNL     1      -9.092  15.892  -6.229  1.00  0.00    -0.492 OA
ENDROOT
BRANCH   1   2
ATOM      2  C   UNL     1      -9.136  17.157  -5.615  1.00  0.00     0.245 C 
BRANCH   2   3
ATOM      3  C   UNL     1      -7.798  17.909  -5.722  1.00  0.00     0.126 C 
BRANCH   3   4
ATOM      4  N   UNL     1      -7.815  19.316  -5.340  1.00  0.00    -0.297 NA
ATOM      5  N   UNL     1      -6.857  21.493  -3.639  1.00  0.00    -0.304 NA
ATOM      6  C   UNL     1      -8.154  20.873  -3.428  1.00  0.00     0.099 C 
ATOM      7  C   UNL     1      -6.498  21.400  -5.043  1.00  0.00     0.099 C 
ATOM      8  C   UNL     1      -8.181  19.423  -3.931  1.00  0.00     0.100 C 
ATOM      9  C   UNL     1      -6.509  19.935  -5.518  1.00  0.00     0.100 C 
ATOM     10  C   UNL     1      -6.888  22.880  -3.208  1.00  0.00     0.105 C 
ENDBRANCH   3   4
ENDBRANCH   2   3
ENDBRANCH   1   2
BRANCH   1  11
ATOM     11  C   UNL     1      -9.877  15.741  -7.346  1.00  0.00     0.125 A 
ATOM     12  C   UNL     1      -9.610  14.810  -8.281  1.00  0.00     0.093 A 
ATOM     13  C   UNL     1     -10.960  16.493  -7.574  1.00  0.00     0.073 A 
ATOM     14  C   UNL     1     -10.345  14.594  -9.396  1.00  0.00     0.132 A 
ATOM     15  C   UNL     1     -11.715  16.320  -8.668  1.00  0.00     0.054 A 
ATOM     16  C   UNL     1     -11.439  15.375  -9.610  1.00  0.00     0.062 A 
ATOM     17  N   UNL     1     -12.709  17.103  -8.757  1.00  0.00    -0.346 N 
ATOM     18  C   UNL     1     -12.288  15.312 -10.676  1.00  0.00     0.236 C 
ATOM     19  C   UNL     1     -13.438  16.967  -9.773  1.00  0.00     0.193 C 
ATOM     20  N   UNL     1     -13.268  16.129 -10.701  1.00  0.00    -0.246 NA
ATOM     21  H   UNL     1     -12.899  17.780  -8.067  1.00  0.00     0.167 HD
BRANCH  14  22
ATOM     22  O   UNL     1      -9.961  13.617 -10.296  1.00  0.00    -0.490 OA
BRANCH  22  23
ATOM     23  C   UNL     1      -9.820  12.263  -9.940  1.00  0.00     0.178 C 
ATOM     24  C   UNL     1     -10.848  11.793  -8.910  1.00  0.00     0.073 C 
ATOM     25  C   UNL     1     -10.008  11.470 -11.243  1.00  0.00     0.073 C 
ATOM     26  C   UNL     1     -10.892  10.270  -8.832  1.00  0.00     0.164 C 
ATOM     27  C   UNL     1     -10.100   9.971 -10.976  1.00  0.00     0.164 C 
ATOM     28  O   UNL     1     -11.159   9.711 -10.095  1.00  0.00    -0.381 OA
ENDBRANCH  22  23
ENDBRANCH  14  22
BRANCH  18  29
ATOM     29  N   UNL     1     -12.352  14.570 -11.719  1.00  0.00    -0.355 N 
ATOM     30  H   UNL     1     -11.416  14.472 -12.195  1.00  0.00     0.163 HD
BRANCH  29  31
ATOM     31  C   UNL     1     -13.241  13.905 -12.357  1.00  0.00     0.102 A 
ATOM     32  C   UNL     1     -13.759  12.727 -11.942  1.00  0.00     0.190 A 
ATOM     33  C   UNL     1     -13.725  14.378 -13.541  1.00  0.00     0.068 A 
ATOM     34  O   UNL     1     -13.487  12.103 -10.914  1.00  0.00    -0.451 OA
ATOM     35  C   UNL     1     -14.680  12.055 -12.646  1.00  0.00     0.168 A 
ATOM     36  C   UNL     1     -14.650  13.694 -14.243  1.00  0.00     0.027 A 
ATOM     37  C   UNL     1     -14.319  10.945 -10.851  1.00  0.00     0.468 C 
ATOM     38  O   UNL     1     -15.015  11.010 -12.090  1.00  0.00    -0.454 OA
ATOM     39  C   UNL     1     -15.142  12.527 -13.807  1.00  0.00     0.052 A 
ATOM     40  Cl  UNL     1     -13.208  15.868 -14.278  1.00  0.00    -0.082 Cl
ENDBRANCH  29  31
ENDBRANCH  18  29
ENDBRANCH   1  11
TORSDOF 8
ENDMDL
MODEL 9
REMARK VINA RESULT:    -8.614      1.644      2.065
REMARK INTER + INTRA:         -14.430
REMARK INTER:                 -13.064
REMARK INTRA:                  -1.366
REMARK UNBOUND:                -1.788
REMARK SMILES CN1CCN(CCOc2cc3c(c(OC4CCOCC4)c2)C(Nc2c(Cl)ccc4c2OCO4)N=CN3)CC1
REMARK SMILES IDX 8 1 7 2 6 3 5 4 2 5 3 6 38 7 4 8 37 9 1 10 9 11 21 12 10 13
REMARK SMILES IDX 13 14 11 15 12 16 36 17 22 18 35 19 34 20 14 22 15 23 16 24
REMARK SMILES IDX 20 25 17 26 19 27 18 28 23 29 24 31 30 32 25 33 31 34 29 35
REMARK SMILES IDX 27 36 32 37 33 38 28 39 26 40
REMARK H PARENT 36 21 23 30
ROOT
ATOM      1  O   UNL     1      -8.881  16.722  -5.556  1.00  0.00    -0.492 OA
ENDROOT
BRANCH   1   2
ATOM      2  C   UNL     1      -8.791  15.738  -4.554  1.00  0.00     0.245 C 
BRANCH   2   3
ATOM      3  C   UNL     1      -7.526  15.891  -3.694  1.00  0.00     0.126 C 
BRANCH   3   4
ATOM      4  N   UNL     1      -7.616  15.408  -2.320  1.00  0.00    -0.297 NA
ATOM      5  N   UNL     1      -9.226  14.587  -0.023  1.00  0.00    -0.304 NA
ATOM      6  C   UNL     1      -8.592  15.892  -0.082  1.00  0.00     0.099 C 
ATOM      7  C   UNL     1      -8.450  13.634  -0.796  1.00  0.00     0.099 C 
ATOM      8  C   UNL     1      -8.389  16.361  -1.530  1.00  0.00     0.100 C 
ATOM      9  C   UNL     1      -8.280  14.115  -2.250  1.00  0.00     0.100 C 
ATOM     10  C   UNL     1      -9.346  14.150   1.358  1.00  0.00     0.105 C 
ENDBRANCH   3   4
ENDBRANCH   2   3
ENDBRANCH   1   2
BRANCH   1  11
ATOM     11  C   UNL     1      -9.623  16.384  -6.662  1.00  0.00     0.125 A 
ATOM     12  C   UNL     1      -9.326  15.307  -7.413  1.00  0.00     0.093 A 
ATOM     13  C   UNL     1     -10.690  17.086  -7.059  1.00  0.00     0.073 A 
ATOM     14  C   UNL     1     -10.017  14.904  -8.504  1.00  0.00     0.132 A 
ATOM     15  C   UNL     1     -11.402  16.730  -8.137  1.00  0.00     0.054 A 
ATOM     16  C   UNL     1     -11.096  15.639  -8.892  1.00  0.00     0.062 A 
ATOM     17  N   UNL     1     -12.385  17.487  -8.398  1.00  0.00    -0.346 N 
ATOM     18  C   UNL     1     -11.902  15.395  -9.966  1.00  0.00     0.236 C 
ATOM     19  C   UNL     1     -13.074  17.181  -9.406  1.00  0.00     0.193 C 
ATOM     20  N   UNL     1     -12.874  16.197 -10.169  1.00  0.00    -0.246 NA
ATOM     21  H   UNL     1     -12.598  18.272  -7.843  1.00  0.00     0.167 HD
BRANCH  14  22
ATOM     22  O   UNL     1      -9.605  13.787  -9.208  1.00  0.00    -0.490 OA
BRANCH  22  23
ATOM     23  C   UNL     1      -8.796  12.784  -8.643  1.00  0.00     0.178 C 
ATOM     24  C   UNL     1      -9.528  11.913  -7.622  1.00  0.00     0.073 C 
ATOM     25  C   UNL     1      -8.338  11.909  -9.822  1.00  0.00     0.073 C 
ATOM     26  C   UNL     1      -8.741  10.642  -7.318  1.00  0.00     0.164 C 
ATOM     27  C   UNL     1      -7.630  10.648  -9.338  1.00  0.00     0.164 C 
ATOM     28  O   UNL     1      -8.482   9.919  -8.497  1.00  0.00    -0.381 OA
ENDBRANCH  22  23
ENDBRANCH  14  22
BRANCH  18  29
ATOM     29  N   UNL     1     -11.930  14.486 -10.869  1.00  0.00    -0.355 N 
ATOM     30  H   UNL     1     -10.972  14.288 -11.263  1.00  0.00     0.163 HD
BRANCH  29  31
ATOM     31  C   UNL     1     -12.801  13.740 -11.437  1.00  0.00     0.102 A 
ATOM     32  C   UNL     1     -13.538  14.106 -12.511  1.00  0.00     0.190 A 
ATOM     33  C   UNL     1     -13.036  12.484 -10.961  1.00  0.00     0.068 A 
ATOM     34  O   UNL     1     -13.506  15.178 -13.119  1.00  0.00    -0.451 OA
ATOM     35  C   UNL     1     -14.449  13.299 -13.070  1.00  0.00     0.168 A 
ATOM     36  C   UNL     1     -13.957  11.680 -11.529  1.00  0.00     0.027 A 
ATOM     37  C   UNL     1     -14.407  15.103 -14.223  1.00  0.00     0.468 C 
ATOM     38  O   UNL     1     -15.005  13.827 -14.032  1.00  0.00    -0.454 OA
ATOM     39  C   UNL     1     -14.675  12.073 -12.590  1.00  0.00     0.052 A 
ATOM     40  Cl  UNL     1     -12.216  11.794  -9.590  1.00  0.00    -0.082 Cl
ENDBRANCH  29  31
ENDBRANCH  18  29
ENDBRANCH   1  11
TORSDOF 8
ENDMDL
