MODEL 1
REMARK VINA RESULT:    -8.855      0.000      0.000
REMARK INTER + INTRA:         -14.423
REMARK INTER:                 -13.256
REMARK INTRA:                  -1.168
REMARK UNBOUND:                -1.168
REMARK SMILES C[C@H]1N[C@@H](N[C@@H](O)N2CCC[C@H]2[C@@H](N)O)S[C@@H]1[C@H]1CCN[C@H](C(C)(C)C(F)(F)F)C1
REMARK SMILES IDX 5 1 4 3 2 4 17 5 3 6 16 7 1 8 18 10 19 11 30 12 20 13 22 14
REMARK SMILES IDX 21 15 23 17 24 18 25 19 26 20 27 21 28 22 29 23 6 24 7 25
REMARK SMILES IDX 8 27 12 28 9 29 11 30 10 31 13 32 15 33 14 35
REMARK H PARENT 5 2 3 9 21 16 7 26 15 34 14 36 14 37
ROOT
ATOM      1  N   UNL     1      -0.047 -10.169  13.750  1.00  0.00    -0.255 NA
ATOM      2  H   UNL     1       0.091 -11.023  13.191  1.00  0.00     0.129 HD
ENDROOT
BRANCH   1   3
ATOM      3  C   UNL     1      -1.013 -10.489  14.685  1.00  0.00     0.185 C 
ATOM      4  C   UNL     1      -2.903 -11.371  15.423  1.00  0.00     0.066 C 
ATOM      5  C   UNL     1      -2.437 -10.875  16.636  1.00  0.00     0.069 C 
ATOM      6  N   UNL     1      -2.084 -11.152  14.333  1.00  0.00    -0.290 NA
ATOM      7  S   UNL     1      -0.912 -10.067  16.357  1.00  0.00    -0.122 SA
ATOM      8  C   UNL     1      -4.176 -12.125  15.215  1.00  0.00     0.025 C 
ATOM      9  H   UNL     1      -1.805 -12.058  13.932  1.00  0.00     0.125 HD
BRANCH   5  10
ATOM     10  C   UNL     1      -2.952 -10.871  18.023  1.00  0.00     0.006 C 
ATOM     11  C   UNL     1      -4.103 -11.569  18.370  1.00  0.00     0.020 C 
ATOM     12  C   UNL     1      -2.262 -10.180  19.015  1.00  0.00     0.024 C 
ATOM     13  C   UNL     1      -4.542 -11.511  19.674  1.00  0.00     0.081 C 
ATOM     14  C   UNL     1      -2.778 -10.197  20.319  1.00  0.00     0.068 C 
ATOM     15  N   UNL     1      -3.911 -10.835  20.644  1.00  0.00    -0.313 NA
ATOM     16  H   UNL     1      -4.569 -10.130  21.006  1.00  0.00     0.122 HD
BRANCH  14  17
ATOM     17  C   UNL     1      -2.029  -9.507  21.485  1.00  0.00     0.076 C 
ATOM     18  C   UNL     1      -1.424  -8.165  21.041  1.00  0.00     0.022 C 
ATOM     19  C   UNL     1      -2.984  -9.278  22.669  1.00  0.00     0.022 C 
BRANCH  17  20
ATOM     20  C   UNL     1      -0.799 -10.450  21.997  1.00  0.00     0.395 C 
ATOM     21  F   UNL     1      -0.916 -11.681  21.503  1.00  0.00    -0.170 F 
ATOM     22  F   UNL     1       0.393  -9.995  21.627  1.00  0.00    -0.170 F 
ATOM     23  F   UNL     1      -0.769 -10.551  23.321  1.00  0.00    -0.170 F 
ENDBRANCH  17  20
ENDBRANCH  14  17
ENDBRANCH   5  10
ENDBRANCH   1   3
BRANCH   1  24
ATOM     24  C   UNL     1      -0.159  -9.123  12.821  1.00  0.00     0.261 C 
BRANCH  24  25
ATOM     25  O   UNL     1      -1.212  -8.879  12.252  1.00  0.00    -0.365 OA
ATOM     26  H   UNL     1      -1.024  -8.540  11.341  1.00  0.00     0.214 HD
ENDBRANCH  24  25
BRANCH  24  27
ATOM     27  N   UNL     1       0.974  -8.372  12.572  1.00  0.00    -0.259 NA
ATOM     28  C   UNL     1       1.375  -7.312  13.512  1.00  0.00     0.104 C 
ATOM     29  C   UNL     1       1.899  -8.495  11.435  1.00  0.00     0.089 C 
ATOM     30  C   UNL     1       2.708  -6.803  12.940  1.00  0.00     0.025 C 
ATOM     31  C   UNL     1       2.697  -7.211  11.486  1.00  0.00     0.017 C 
BRANCH  28  32
ATOM     32  C   UNL     1       0.340  -6.194  13.651  1.00  0.00     0.197 C 
BRANCH  32  33
ATOM     33  O   UNL     1      -0.341  -5.853  12.680  1.00  0.00    -0.377 OA
ATOM     34  H   UNL     1      -0.749  -4.969  12.858  1.00  0.00     0.212 HD
ENDBRANCH  32  33
BRANCH  32  35
ATOM     35  N   UNL     1       0.279  -5.585  14.824  1.00  0.00    -0.305 NA
ATOM     36  H   UNL     1       0.764  -4.678  14.766  1.00  0.00     0.121 HD
ATOM     37  H   UNL     1      -0.707  -5.431  15.080  1.00  0.00     0.121 HD
ENDBRANCH  32  35
ENDBRANCH  28  32
ENDBRANCH  24  27
ENDBRANCH   1  24
TORSDOF 10
ENDMDL
MODEL 2
REMARK VINA RESULT:    -8.542      2.296      3.330
REMARK INTER + INTRA:         -13.955
REMARK INTER:                 -12.856
REMARK INTRA:                  -1.098
REMARK UNBOUND:                -1.168
REMARK SMILES C[C@H]1N[C@@H](N[C@@H](O)N2CCC[C@H]2[C@@H](N)O)S[C@@H]1[C@H]1CCN[C@H](C(C)(C)C(F)(F)F)C1
REMARK SMILES IDX 5 1 4 3 2 4 17 5 3 6 16 7 1 8 18 10 19 11 30 12 20 13 22 14
REMARK SMILES IDX 21 15 23 17 24 18 25 19 26 20 27 21 28 22 29 23 6 24 7 25
REMARK SMILES IDX 8 27 12 28 9 29 11 30 10 31 13 32 15 33 14 35
REMARK H PARENT 5 2 3 9 21 16 7 26 15 34 14 36 14 37
ROOT
ATOM      1  N   UNL     1       0.706  -8.109  12.203  1.00  0.00    -0.255 NA
ATOM      2  H   UNL     1       1.657  -7.791  12.437  1.00  0.00     0.129 HD
ENDROOT
BRANCH   1   3
ATOM      3  C   UNL     1       0.132  -8.480  13.405  1.00  0.00     0.185 C 
ATOM      4  C   UNL     1      -0.879  -9.834  14.832  1.00  0.00     0.066 C 
ATOM      5  C   UNL     1      -0.745  -8.734  15.673  1.00  0.00     0.069 C 
ATOM      6  N   UNL     1      -0.373  -9.677  13.557  1.00  0.00    -0.290 NA
ATOM      7  S   UNL     1       0.026  -7.444  14.783  1.00  0.00    -0.122 SA
ATOM      8  C   UNL     1      -1.493 -11.147  15.197  1.00  0.00     0.025 C 
ATOM      9  H   UNL     1       0.364 -10.378  13.398  1.00  0.00     0.125 HD
BRANCH   5  10
ATOM     10  C   UNL     1      -1.122  -8.447  17.075  1.00  0.00     0.006 C 
ATOM     11  C   UNL     1      -0.939  -7.186  17.631  1.00  0.00     0.020 C 
ATOM     12  C   UNL     1      -1.699  -9.446  17.854  1.00  0.00     0.024 C 
ATOM     13  C   UNL     1      -1.293  -6.987  18.947  1.00  0.00     0.081 C 
ATOM     14  C   UNL     1      -2.044  -9.141  19.179  1.00  0.00     0.068 C 
ATOM     15  N   UNL     1      -1.828  -7.937  19.726  1.00  0.00    -0.313 NA
ATOM     16  H   UNL     1      -1.194  -8.072  20.527  1.00  0.00     0.122 HD
BRANCH  14  17
ATOM     17  C   UNL     1      -2.750 -10.181  20.082  1.00  0.00     0.076 C 
ATOM     18  C   UNL     1      -3.763  -9.507  21.021  1.00  0.00     0.022 C 
ATOM     19  C   UNL     1      -3.466 -11.235  19.219  1.00  0.00     0.022 C 
BRANCH  17  20
ATOM     20  C   UNL     1      -1.654 -10.948  21.017  1.00  0.00     0.395 C 
ATOM     21  F   UNL     1      -2.106 -11.069  22.264  1.00  0.00    -0.170 F 
ATOM     22  F   UNL     1      -1.370 -12.172  20.587  1.00  0.00    -0.170 F 
ATOM     23  F   UNL     1      -0.501 -10.291  21.071  1.00  0.00    -0.170 F 
ENDBRANCH  17  20
ENDBRANCH  14  17
ENDBRANCH   5  10
ENDBRANCH   1   3
BRANCH   1  24
ATOM     24  C   UNL     1       0.853  -8.961  11.098  1.00  0.00     0.261 C 
BRANCH  24  25
ATOM     25  O   UNL     1      -0.110  -9.353  10.456  1.00  0.00    -0.365 OA
ATOM     26  H   UNL     1      -0.910  -9.373  11.040  1.00  0.00     0.214 HD
ENDBRANCH  24  25
BRANCH  24  27
ATOM     27  N   UNL     1       2.137  -9.345  10.759  1.00  0.00    -0.259 NA
ATOM     28  C   UNL     1       3.227  -8.355  10.771  1.00  0.00     0.104 C 
ATOM     29  C   UNL     1       2.599 -10.687  10.373  1.00  0.00     0.089 C 
ATOM     30  C   UNL     1       4.478  -9.187  10.446  1.00  0.00     0.025 C 
ATOM     31  C   UNL     1       3.960 -10.431   9.763  1.00  0.00     0.017 C 
BRANCH  28  32
ATOM     32  C   UNL     1       3.022  -7.207   9.781  1.00  0.00     0.197 C 
BRANCH  32  33
ATOM     33  O   UNL     1       3.306  -7.356   8.589  1.00  0.00    -0.377 OA
ATOM     34  H   UNL     1       2.820  -6.684   8.049  1.00  0.00     0.212 HD
ENDBRANCH  32  33
BRANCH  32  35
ATOM     35  N   UNL     1       2.605  -6.057  10.284  1.00  0.00    -0.305 NA
ATOM     36  H   UNL     1       2.536  -6.135  11.309  1.00  0.00     0.121 HD
ATOM     37  H   UNL     1       3.273  -5.312  10.041  1.00  0.00     0.121 HD
ENDBRANCH  32  35
ENDBRANCH  28  32
ENDBRANCH  24  27
ENDBRANCH   1  24
TORSDOF 10
ENDMDL
MODEL 3
REMARK VINA RESULT:    -8.490      1.726      2.859
REMARK INTER + INTRA:         -13.877
REMARK INTER:                 -13.015
REMARK INTRA:                  -0.862
REMARK UNBOUND:                -1.168
REMARK SMILES C[C@H]1N[C@@H](N[C@@H](O)N2CCC[C@H]2[C@@H](N)O)S[C@@H]1[C@H]1CCN[C@H](C(C)(C)C(F)(F)F)C1
REMARK SMILES IDX 5 1 4 3 2 4 17 5 3 6 16 7 1 8 18 10 19 11 30 12 20 13 22 14
REMARK SMILES IDX 21 15 23 17 24 18 25 19 26 20 27 21 28 22 29 23 6 24 7 25
REMARK SMILES IDX 8 27 12 28 9 29 11 30 10 31 13 32 15 33 14 35
REMARK H PARENT 5 2 3 9 21 16 7 26 15 34 14 36 14 37
ROOT
ATOM      1  N   UNL     1       0.329  -8.696  13.321  1.00  0.00    -0.255 NA
ATOM      2  H   UNL     1      -0.230  -9.147  12.583  1.00  0.00     0.129 HD
ENDROOT
BRANCH   1   3
ATOM      3  C   UNL     1      -0.377  -8.889  14.493  1.00  0.00     0.185 C 
ATOM      4  C   UNL     1      -1.146  -8.370  16.501  1.00  0.00     0.066 C 
ATOM      5  C   UNL     1      -1.771  -9.606  16.370  1.00  0.00     0.069 C 
ATOM      6  N   UNL     1      -0.369  -7.976  15.430  1.00  0.00    -0.290 NA
ATOM      7  S   UNL     1      -1.313 -10.300  14.833  1.00  0.00    -0.122 SA
ATOM      8  C   UNL     1      -1.265  -7.447  17.671  1.00  0.00     0.025 C 
ATOM      9  H   UNL     1      -0.741  -7.096  15.049  1.00  0.00     0.125 HD
BRANCH   5  10
ATOM     10  C   UNL     1      -2.668 -10.412  17.227  1.00  0.00     0.006 C 
ATOM     11  C   UNL     1      -3.445 -11.438  16.700  1.00  0.00     0.020 C 
ATOM     12  C   UNL     1      -2.723 -10.165  18.595  1.00  0.00     0.024 C 
ATOM     13  C   UNL     1      -4.274 -12.140  17.547  1.00  0.00     0.081 C 
ATOM     14  C   UNL     1      -3.584 -10.947  19.379  1.00  0.00     0.068 C 
ATOM     15  N   UNL     1      -4.364 -11.907  18.864  1.00  0.00    -0.313 NA
ATOM     16  H   UNL     1      -5.342 -11.652  19.066  1.00  0.00     0.122 HD
BRANCH  14  17
ATOM     17  C   UNL     1      -3.647 -10.773  20.916  1.00  0.00     0.076 C 
ATOM     18  C   UNL     1      -4.148  -9.370  21.298  1.00  0.00     0.022 C 
ATOM     19  C   UNL     1      -4.570 -11.838  21.534  1.00  0.00     0.022 C 
BRANCH  17  20
ATOM     20  C   UNL     1      -2.159 -10.951  21.562  1.00  0.00     0.395 C 
ATOM     21  F   UNL     1      -1.497 -11.932  20.950  1.00  0.00    -0.170 F 
ATOM     22  F   UNL     1      -1.414  -9.856  21.459  1.00  0.00    -0.170 F 
ATOM     23  F   UNL     1      -2.211 -11.249  22.856  1.00  0.00    -0.170 F 
ENDBRANCH  17  20
ENDBRANCH  14  17
ENDBRANCH   5  10
ENDBRANCH   1   3
BRANCH   1  24
ATOM     24  C   UNL     1       0.688  -7.440  12.809  1.00  0.00     0.261 C 
BRANCH  24  25
ATOM     25  O   UNL     1       0.017  -6.442  13.026  1.00  0.00    -0.365 OA
ATOM     26  H   UNL     1      -0.094  -5.930  12.186  1.00  0.00     0.214 HD
ENDBRANCH  24  25
BRANCH  24  27
ATOM     27  N   UNL     1       1.837  -7.371  12.044  1.00  0.00    -0.259 NA
ATOM     28  C   UNL     1       1.754  -7.500  10.580  1.00  0.00     0.104 C 
ATOM     29  C   UNL     1       3.216  -7.163  12.513  1.00  0.00     0.089 C 
ATOM     30  C   UNL     1       3.199  -7.267  10.110  1.00  0.00     0.025 C 
ATOM     31  C   UNL     1       4.059  -7.552  11.319  1.00  0.00     0.017 C 
BRANCH  28  32
ATOM     32  C   UNL     1       1.207  -8.851  10.115  1.00  0.00     0.197 C 
BRANCH  32  33
ATOM     33  O   UNL     1       0.024  -9.145  10.313  1.00  0.00    -0.377 OA
ATOM     34  H   UNL     1      -0.110  -9.339  11.274  1.00  0.00     0.212 HD
ENDBRANCH  32  33
BRANCH  32  35
ATOM     35  N   UNL     1       2.075  -9.689   9.572  1.00  0.00    -0.305 NA
ATOM     36  H   UNL     1       1.584 -10.320   8.924  1.00  0.00     0.121 HD
ATOM     37  H   UNL     1       2.790  -9.156   9.056  1.00  0.00     0.121 HD
ENDBRANCH  32  35
ENDBRANCH  28  32
ENDBRANCH  24  27
ENDBRANCH   1  24
TORSDOF 10
ENDMDL
MODEL 4
REMARK VINA RESULT:    -8.451      1.287      2.352
REMARK INTER + INTRA:         -13.818
REMARK INTER:                 -12.391
REMARK INTRA:                  -1.427
REMARK UNBOUND:                -1.168
REMARK SMILES C[C@H]1N[C@@H](N[C@@H](O)N2CCC[C@H]2[C@@H](N)O)S[C@@H]1[C@H]1CCN[C@H](C(C)(C)C(F)(F)F)C1
REMARK SMILES IDX 5 1 4 3 2 4 17 5 3 6 16 7 1 8 18 10 19 11 30 12 20 13 22 14
REMARK SMILES IDX 21 15 23 17 24 18 25 19 26 20 27 21 28 22 29 23 6 24 7 25
REMARK SMILES IDX 8 27 12 28 9 29 11 30 10 31 13 32 15 33 14 35
REMARK H PARENT 5 2 3 9 21 16 7 26 15 34 14 36 14 37
ROOT
ATOM      1  N   UNL     1       0.659  -6.740  14.569  1.00  0.00    -0.255 NA
ATOM      2  H   UNL     1       1.643  -6.898  14.829  1.00  0.00     0.129 HD
ENDROOT
BRANCH   1   3
ATOM      3  C   UNL     1      -0.057  -7.743  15.196  1.00  0.00     0.185 C 
ATOM      4  C   UNL     1      -0.933  -9.761  15.430  1.00  0.00     0.066 C 
ATOM      5  C   UNL     1      -1.354  -9.227  16.643  1.00  0.00     0.069 C 
ATOM      6  N   UNL     1      -0.196  -8.913  14.627  1.00  0.00    -0.290 NA
ATOM      7  S   UNL     1      -0.814  -7.567  16.738  1.00  0.00    -0.122 SA
ATOM      8  C   UNL     1      -1.189 -11.152  14.948  1.00  0.00     0.025 C 
ATOM      9  H   UNL     1       0.734  -9.324  14.466  1.00  0.00     0.125 HD
BRANCH   5  10
ATOM     10  C   UNL     1      -2.139  -9.741  17.787  1.00  0.00     0.006 C 
ATOM     11  C   UNL     1      -3.262 -10.539  17.595  1.00  0.00     0.020 C 
ATOM     12  C   UNL     1      -1.739  -9.449  19.088  1.00  0.00     0.024 C 
ATOM     13  C   UNL     1      -3.961 -10.971  18.700  1.00  0.00     0.081 C 
ATOM     14  C   UNL     1      -2.506  -9.952  20.149  1.00  0.00     0.068 C 
ATOM     15  N   UNL     1      -3.611 -10.685  19.962  1.00  0.00    -0.313 NA
ATOM     16  H   UNL     1      -4.396 -10.175  20.391  1.00  0.00     0.122 HD
BRANCH  14  17
ATOM     17  C   UNL     1      -2.083  -9.723  21.621  1.00  0.00     0.076 C 
ATOM     18  C   UNL     1      -1.659  -8.265  21.858  1.00  0.00     0.022 C 
ATOM     19  C   UNL     1      -3.239 -10.087  22.568  1.00  0.00     0.022 C 
BRANCH  17  20
ATOM     20  C   UNL     1      -0.804 -10.668  21.990  1.00  0.00     0.395 C 
ATOM     21  F   UNL     1      -0.877 -11.829  21.340  1.00  0.00    -0.170 F 
ATOM     22  F   UNL     1       0.360 -10.115  21.669  1.00  0.00    -0.170 F 
ATOM     23  F   UNL     1      -0.746 -10.939  23.289  1.00  0.00    -0.170 F 
ENDBRANCH  17  20
ENDBRANCH  14  17
ENDBRANCH   5  10
ENDBRANCH   1   3
BRANCH   1  24
ATOM     24  C   UNL     1       0.664  -6.516  13.185  1.00  0.00     0.261 C 
BRANCH  24  25
ATOM     25  O   UNL     1      -0.254  -5.936  12.624  1.00  0.00    -0.365 OA
ATOM     26  H   UNL     1      -0.207  -4.968  12.829  1.00  0.00     0.214 HD
ENDBRANCH  24  25
BRANCH  24  27
ATOM     27  N   UNL     1       1.753  -6.978  12.470  1.00  0.00    -0.259 NA
ATOM     28  C   UNL     1       1.548  -7.709  11.209  1.00  0.00     0.104 C 
ATOM     29  C   UNL     1       3.177  -6.825  12.808  1.00  0.00     0.089 C 
ATOM     30  C   UNL     1       2.975  -7.948  10.690  1.00  0.00     0.025 C 
ATOM     31  C   UNL     1       3.864  -7.826  11.906  1.00  0.00     0.017 C 
BRANCH  28  32
ATOM     32  C   UNL     1       0.768  -9.014  11.378  1.00  0.00     0.197 C 
BRANCH  32  33
ATOM     33  O   UNL     1      -0.399  -8.993  11.779  1.00  0.00    -0.377 OA
ATOM     34  H   UNL     1      -1.004  -8.784  11.023  1.00  0.00     0.212 HD
ENDBRANCH  32  33
BRANCH  32  35
ATOM     35  N   UNL     1       1.430 -10.136  11.145  1.00  0.00    -0.305 NA
ATOM     36  H   UNL     1       2.412 -10.020  11.430  1.00  0.00     0.121 HD
ATOM     37  H   UNL     1       1.004 -10.904  11.683  1.00  0.00     0.121 HD
ENDBRANCH  32  35
ENDBRANCH  28  32
ENDBRANCH  24  27
ENDBRANCH   1  24
TORSDOF 10
ENDMDL
MODEL 5
REMARK VINA RESULT:    -8.294      1.930      2.863
REMARK INTER + INTRA:         -13.583
REMARK INTER:                 -12.716
REMARK INTRA:                  -0.867
REMARK UNBOUND:                -1.168
REMARK SMILES C[C@H]1N[C@@H](N[C@@H](O)N2CCC[C@H]2[C@@H](N)O)S[C@@H]1[C@H]1CCN[C@H](C(C)(C)C(F)(F)F)C1
REMARK SMILES IDX 5 1 4 3 2 4 17 5 3 6 16 7 1 8 18 10 19 11 30 12 20 13 22 14
REMARK SMILES IDX 21 15 23 17 24 18 25 19 26 20 27 21 28 22 29 23 6 24 7 25
REMARK SMILES IDX 8 27 12 28 9 29 11 30 10 31 13 32 15 33 14 35
REMARK H PARENT 5 2 3 9 21 16 7 26 15 34 14 36 14 37
ROOT
ATOM      1  N   UNL     1      -0.293  -9.311  12.448  1.00  0.00    -0.255 NA
ATOM      2  H   UNL     1      -1.127  -9.033  11.911  1.00  0.00     0.129 HD
ENDROOT
BRANCH   1   3
ATOM      3  C   UNL     1      -0.712  -9.404  13.762  1.00  0.00     0.185 C 
ATOM      4  C   UNL     1      -0.788  -8.860  15.905  1.00  0.00     0.066 C 
ATOM      5  C   UNL     1      -1.736  -9.878  15.931  1.00  0.00     0.069 C 
ATOM      6  N   UNL     1      -0.224  -8.600  14.672  1.00  0.00    -0.290 NA
ATOM      7  S   UNL     1      -1.880 -10.546  14.323  1.00  0.00    -0.122 SA
ATOM      8  C   UNL     1      -0.359  -8.031  17.072  1.00  0.00     0.025 C 
ATOM      9  H   UNL     1      -0.427  -7.626  14.406  1.00  0.00     0.125 HD
BRANCH   5  10
ATOM     10  C   UNL     1      -2.577 -10.487  16.986  1.00  0.00     0.006 C 
ATOM     11  C   UNL     1      -3.459 -11.523  16.701  1.00  0.00     0.020 C 
ATOM     12  C   UNL     1      -2.469 -10.040  18.299  1.00  0.00     0.024 C 
ATOM     13  C   UNL     1      -4.228 -12.035  17.723  1.00  0.00     0.081 C 
ATOM     14  C   UNL     1      -3.281 -10.638  19.275  1.00  0.00     0.068 C 
ATOM     15  N   UNL     1      -4.161 -11.607  18.992  1.00  0.00    -0.313 NA
ATOM     16  H   UNL     1      -5.096 -11.259  19.249  1.00  0.00     0.122 HD
BRANCH  14  17
ATOM     17  C   UNL     1      -3.166 -10.238  20.766  1.00  0.00     0.076 C 
ATOM     18  C   UNL     1      -3.076  -8.712  20.928  1.00  0.00     0.022 C 
ATOM     19  C   UNL     1      -4.377 -10.771  21.553  1.00  0.00     0.022 C 
BRANCH  17  20
ATOM     20  C   UNL     1      -1.813 -10.878  21.417  1.00  0.00     0.395 C 
ATOM     21  F   UNL     1      -0.786 -10.040  21.277  1.00  0.00    -0.170 F 
ATOM     22  F   UNL     1      -1.932 -11.134  22.714  1.00  0.00    -0.170 F 
ATOM     23  F   UNL     1      -1.477 -12.024  20.836  1.00  0.00    -0.170 F 
ENDBRANCH  17  20
ENDBRANCH  14  17
ENDBRANCH   5  10
ENDBRANCH   1   3
BRANCH   1  24
ATOM     24  C   UNL     1       0.741  -8.474  12.003  1.00  0.00     0.261 C 
BRANCH  24  25
ATOM     25  O   UNL     1       0.746  -7.276  12.242  1.00  0.00    -0.365 OA
ATOM     26  H   UNL     1      -0.021  -7.054  12.828  1.00  0.00     0.214 HD
ENDBRANCH  24  25
BRANCH  24  27
ATOM     27  N   UNL     1       1.762  -9.058  11.278  1.00  0.00    -0.259 NA
ATOM     28  C   UNL     1       2.917  -8.249  10.852  1.00  0.00     0.104 C 
ATOM     29  C   UNL     1       1.872 -10.463  10.854  1.00  0.00     0.089 C 
ATOM     30  C   UNL     1       3.850  -9.270  10.182  1.00  0.00     0.025 C 
ATOM     31  C   UNL     1       2.962 -10.432   9.804  1.00  0.00     0.017 C 
BRANCH  28  32
ATOM     32  C   UNL     1       2.545  -7.102   9.911  1.00  0.00     0.197 C 
BRANCH  32  33
ATOM     33  O   UNL     1       2.622  -5.932  10.296  1.00  0.00    -0.377 OA
ATOM     34  H   UNL     1       3.571  -5.654  10.319  1.00  0.00     0.212 HD
ENDBRANCH  32  33
BRANCH  32  35
ATOM     35  N   UNL     1       2.079  -7.438   8.719  1.00  0.00    -0.305 NA
ATOM     36  H   UNL     1       2.867  -7.613   8.079  1.00  0.00     0.121 HD
ATOM     37  H   UNL     1       1.508  -8.292   8.801  1.00  0.00     0.121 HD
ENDBRANCH  32  35
ENDBRANCH  28  32
ENDBRANCH  24  27
ENDBRANCH   1  24
TORSDOF 10
ENDMDL
MODEL 6
REMARK VINA RESULT:    -7.888      2.069      3.251
REMARK INTER + INTRA:         -12.975
REMARK INTER:                 -11.569
REMARK INTRA:                  -1.407
REMARK UNBOUND:                -1.168
REMARK SMILES C[C@H]1N[C@@H](N[C@@H](O)N2CCC[C@H]2[C@@H](N)O)S[C@@H]1[C@H]1CCN[C@H](C(C)(C)C(F)(F)F)C1
REMARK SMILES IDX 5 1 4 3 2 4 17 5 3 6 16 7 1 8 18 10 19 11 30 12 20 13 22 14
REMARK SMILES IDX 21 15 23 17 24 18 25 19 26 20 27 21 28 22 29 23 6 24 7 25
REMARK SMILES IDX 8 27 12 28 9 29 11 30 10 31 13 32 15 33 14 35
REMARK H PARENT 5 2 3 9 21 16 7 26 15 34 14 36 14 37
ROOT
ATOM      1  N   UNL     1       1.409  -6.571  14.438  1.00  0.00    -0.255 NA
ATOM      2  H   UNL     1       2.299  -7.086  14.491  1.00  0.00     0.129 HD
ENDROOT
BRANCH   1   3
ATOM      3  C   UNL     1       0.595  -7.136  15.401  1.00  0.00     0.185 C 
ATOM      4  C   UNL     1      -0.814  -8.618  16.244  1.00  0.00     0.066 C 
ATOM      5  C   UNL     1      -0.684  -7.814  17.372  1.00  0.00     0.069 C 
ATOM      6  N   UNL     1      -0.080  -8.226  15.142  1.00  0.00    -0.290 NA
ATOM      7  S   UNL     1       0.389  -6.489  16.990  1.00  0.00    -0.122 SA
ATOM      8  C   UNL     1      -1.646  -9.855  16.140  1.00  0.00     0.025 C 
ATOM      9  H   UNL     1       0.576  -8.978  14.888  1.00  0.00     0.125 HD
BRANCH   5  10
ATOM     10  C   UNL     1      -1.256  -7.839  18.736  1.00  0.00     0.006 C 
ATOM     11  C   UNL     1      -1.938  -6.745  19.256  1.00  0.00     0.020 C 
ATOM     12  C   UNL     1      -1.140  -8.987  19.514  1.00  0.00     0.024 C 
ATOM     13  C   UNL     1      -2.431  -6.823  20.540  1.00  0.00     0.081 C 
ATOM     14  C   UNL     1      -1.692  -8.978  20.803  1.00  0.00     0.068 C 
ATOM     15  N   UNL     1      -2.312  -7.908  21.319  1.00  0.00    -0.313 NA
ATOM     16  H   UNL     1      -1.791  -7.626  22.162  1.00  0.00     0.122 HD
BRANCH  14  17
ATOM     17  C   UNL     1      -1.659 -10.241  21.697  1.00  0.00     0.076 C 
ATOM     18  C   UNL     1      -2.909 -10.324  22.589  1.00  0.00     0.022 C 
ATOM     19  C   UNL     1      -1.560 -11.506  20.826  1.00  0.00     0.022 C 
BRANCH  17  20
ATOM     20  C   UNL     1      -0.359 -10.197  22.683  1.00  0.00     0.395 C 
ATOM     21  F   UNL     1       0.728  -9.831  22.006  1.00  0.00    -0.170 F 
ATOM     22  F   UNL     1      -0.499  -9.339  23.687  1.00  0.00    -0.170 F 
ATOM     23  F   UNL     1      -0.111 -11.381  23.231  1.00  0.00    -0.170 F 
ENDBRANCH  17  20
ENDBRANCH  14  17
ENDBRANCH   5  10
ENDBRANCH   1   3
BRANCH   1  24
ATOM     24  C   UNL     1       1.093  -6.501  13.073  1.00  0.00     0.261 C 
BRANCH  24  25
ATOM     25  O   UNL     1       0.068  -5.965  12.678  1.00  0.00    -0.365 OA
ATOM     26  H   UNL     1      -0.552  -6.654  12.331  1.00  0.00     0.214 HD
ENDBRANCH  24  25
BRANCH  24  27
ATOM     27  N   UNL     1       1.988  -7.064  12.184  1.00  0.00    -0.259 NA
ATOM     28  C   UNL     1       1.497  -7.909  11.083  1.00  0.00     0.104 C 
ATOM     29  C   UNL     1       3.453  -6.922  12.175  1.00  0.00     0.089 C 
ATOM     30  C   UNL     1       2.768  -8.242  10.284  1.00  0.00     0.025 C 
ATOM     31  C   UNL     1       3.910  -8.028  11.250  1.00  0.00     0.017 C 
BRANCH  28  32
ATOM     32  C   UNL     1       0.766  -9.166  11.555  1.00  0.00     0.197 C 
BRANCH  32  33
ATOM     33  O   UNL     1       1.204 -10.285  11.272  1.00  0.00    -0.377 OA
ATOM     34  H   UNL     1       2.022 -10.462  11.801  1.00  0.00     0.212 HD
ENDBRANCH  32  33
BRANCH  32  35
ATOM     35  N   UNL     1      -0.373  -8.983  12.204  1.00  0.00    -0.305 NA
ATOM     36  H   UNL     1      -1.090  -9.617  11.825  1.00  0.00     0.121 HD
ATOM     37  H   UNL     1      -0.234  -9.181  13.205  1.00  0.00     0.121 HD
ENDBRANCH  32  35
ENDBRANCH  28  32
ENDBRANCH  24  27
ENDBRANCH   1  24
TORSDOF 10
ENDMDL
MODEL 7
REMARK VINA RESULT:    -7.883      1.627      2.395
REMARK INTER + INTRA:         -12.968
REMARK INTER:                 -11.924
REMARK INTRA:                  -1.044
REMARK UNBOUND:                -1.168
REMARK SMILES C[C@H]1N[C@@H](N[C@@H](O)N2CCC[C@H]2[C@@H](N)O)S[C@@H]1[C@H]1CCN[C@H](C(C)(C)C(F)(F)F)C1
REMARK SMILES IDX 5 1 4 3 2 4 17 5 3 6 16 7 1 8 18 10 19 11 30 12 20 13 22 14
REMARK SMILES IDX 21 15 23 17 24 18 25 19 26 20 27 21 28 22 29 23 6 24 7 25
REMARK SMILES IDX 8 27 12 28 9 29 11 30 10 31 13 32 15 33 14 35
REMARK H PARENT 5 2 3 9 21 16 7 26 15 34 14 36 14 37
ROOT
ATOM      1  N   UNL     1      -0.038  -9.965  13.951  1.00  0.00    -0.255 NA
ATOM      2  H   UNL     1       0.196 -10.807  13.406  1.00  0.00     0.129 HD
ENDROOT
BRANCH   1   3
ATOM      3  C   UNL     1      -1.001 -10.365  14.857  1.00  0.00     0.185 C 
ATOM      4  C   UNL     1      -2.845 -11.383  15.534  1.00  0.00     0.066 C 
ATOM      5  C   UNL     1      -2.442 -10.877  16.766  1.00  0.00     0.069 C 
ATOM      6  N   UNL     1      -2.018 -11.091  14.469  1.00  0.00    -0.290 NA
ATOM      7  S   UNL     1      -0.969  -9.965  16.538  1.00  0.00    -0.122 SA
ATOM      8  C   UNL     1      -4.060 -12.216  15.284  1.00  0.00     0.025 C 
ATOM      9  H   UNL     1      -1.669 -11.970  14.061  1.00  0.00     0.125 HD
BRANCH   5  10
ATOM     10  C   UNL     1      -2.989 -10.931  18.140  1.00  0.00     0.006 C 
ATOM     11  C   UNL     1      -4.167 -11.612  18.424  1.00  0.00     0.020 C 
ATOM     12  C   UNL     1      -2.303 -10.315  19.182  1.00  0.00     0.024 C 
ATOM     13  C   UNL     1      -4.635 -11.610  19.720  1.00  0.00     0.081 C 
ATOM     14  C   UNL     1      -2.849 -10.384  20.472  1.00  0.00     0.068 C 
ATOM     15  N   UNL     1      -4.006 -11.004  20.738  1.00  0.00    -0.313 NA
ATOM     16  H   UNL     1      -4.652 -10.300  21.123  1.00  0.00     0.122 HD
BRANCH  14  17
ATOM     17  C   UNL     1      -2.107  -9.780  21.689  1.00  0.00     0.076 C 
ATOM     18  C   UNL     1      -1.867 -10.840  22.777  1.00  0.00     0.022 C 
ATOM     19  C   UNL     1      -0.761  -9.179  21.246  1.00  0.00     0.022 C 
BRANCH  17  20
ATOM     20  C   UNL     1      -3.001  -8.590  22.358  1.00  0.00     0.395 C 
ATOM     21  F   UNL     1      -3.819  -9.085  23.286  1.00  0.00    -0.170 F 
ATOM     22  F   UNL     1      -2.265  -7.656  22.947  1.00  0.00    -0.170 F 
ATOM     23  F   UNL     1      -3.751  -7.965  21.456  1.00  0.00    -0.170 F 
ENDBRANCH  17  20
ENDBRANCH  14  17
ENDBRANCH   5  10
ENDBRANCH   1   3
BRANCH   1  24
ATOM     24  C   UNL     1      -0.212  -8.941  13.008  1.00  0.00     0.261 C 
BRANCH  24  25
ATOM     25  O   UNL     1      -1.125  -8.963  12.196  1.00  0.00    -0.365 OA
ATOM     26  H   UNL     1      -0.870  -8.436  11.398  1.00  0.00     0.214 HD
ENDBRANCH  24  25
BRANCH  24  27
ATOM     27  N   UNL     1       0.693  -7.897  13.031  1.00  0.00    -0.259 NA
ATOM     28  C   UNL     1       1.242  -7.373  11.769  1.00  0.00     0.104 C 
ATOM     29  C   UNL     1       1.210  -7.183  14.209  1.00  0.00     0.089 C 
ATOM     30  C   UNL     1       2.104  -6.181  12.214  1.00  0.00     0.025 C 
ATOM     31  C   UNL     1       2.409  -6.434  13.671  1.00  0.00     0.017 C 
BRANCH  28  32
ATOM     32  C   UNL     1       2.047  -8.405  10.977  1.00  0.00     0.197 C 
BRANCH  32  33
ATOM     33  O   UNL     1       3.256  -8.543  11.184  1.00  0.00    -0.377 OA
ATOM     34  H   UNL     1       3.611  -7.727  11.618  1.00  0.00     0.212 HD
ENDBRANCH  32  33
BRANCH  32  35
ATOM     35  N   UNL     1       1.398  -9.066  10.033  1.00  0.00    -0.305 NA
ATOM     36  H   UNL     1       1.986  -9.125   9.189  1.00  0.00     0.121 HD
ATOM     37  H   UNL     1       1.180 -10.016  10.366  1.00  0.00     0.121 HD
ENDBRANCH  32  35
ENDBRANCH  28  32
ENDBRANCH  24  27
ENDBRANCH   1  24
TORSDOF 10
ENDMDL
MODEL 8
REMARK VINA RESULT:    -7.872      2.360      3.524
REMARK INTER + INTRA:         -12.952
REMARK INTER:                 -11.771
REMARK INTRA:                  -1.181
REMARK UNBOUND:                -1.168
REMARK SMILES C[C@H]1N[C@@H](N[C@@H](O)N2CCC[C@H]2[C@@H](N)O)S[C@@H]1[C@H]1CCN[C@H](C(C)(C)C(F)(F)F)C1
REMARK SMILES IDX 5 1 4 3 2 4 17 5 3 6 16 7 1 8 18 10 19 11 30 12 20 13 22 14
REMARK SMILES IDX 21 15 23 17 24 18 25 19 26 20 27 21 28 22 29 23 6 24 7 25
REMARK SMILES IDX 8 27 12 28 9 29 11 30 10 31 13 32 15 33 14 35
REMARK H PARENT 5 2 3 9 21 16 7 26 15 34 14 36 14 37
ROOT
ATOM      1  N   UNL     1       1.268  -6.531  14.406  1.00  0.00    -0.255 NA
ATOM      2  H   UNL     1       2.187  -6.986  14.510  1.00  0.00     0.129 HD
ENDROOT
BRANCH   1   3
ATOM      3  C   UNL     1       0.439  -7.156  15.318  1.00  0.00     0.185 C 
ATOM      4  C   UNL     1      -0.915  -8.736  16.072  1.00  0.00     0.066 C 
ATOM      5  C   UNL     1      -0.905  -7.932  17.208  1.00  0.00     0.069 C 
ATOM      6  N   UNL     1      -0.146  -8.287  15.017  1.00  0.00    -0.290 NA
ATOM      7  S   UNL     1       0.098  -6.536  16.894  1.00  0.00    -0.122 SA
ATOM      8  C   UNL     1      -1.654 -10.025  15.916  1.00  0.00     0.025 C 
ATOM      9  H   UNL     1       0.573  -8.992  14.799  1.00  0.00     0.125 HD
BRANCH   5  10
ATOM     10  C   UNL     1      -1.553  -8.005  18.536  1.00  0.00     0.006 C 
ATOM     11  C   UNL     1      -1.927  -6.856  19.224  1.00  0.00     0.020 C 
ATOM     12  C   UNL     1      -1.823  -9.245  19.107  1.00  0.00     0.024 C 
ATOM     13  C   UNL     1      -2.509  -6.990  20.465  1.00  0.00     0.081 C 
ATOM     14  C   UNL     1      -2.437  -9.279  20.367  1.00  0.00     0.068 C 
ATOM     15  N   UNL     1      -2.759  -8.171  21.048  1.00  0.00    -0.313 NA
ATOM     16  H   UNL     1      -2.238  -8.193  21.936  1.00  0.00     0.122 HD
BRANCH  14  17
ATOM     17  C   UNL     1      -2.828 -10.622  21.031  1.00  0.00     0.076 C 
ATOM     18  C   UNL     1      -1.771 -11.705  20.761  1.00  0.00     0.022 C 
ATOM     19  C   UNL     1      -3.000 -10.433  22.549  1.00  0.00     0.022 C 
BRANCH  17  20
ATOM     20  C   UNL     1      -4.243 -11.159  20.421  1.00  0.00     0.395 C 
ATOM     21  F   UNL     1      -4.491 -12.400  20.839  1.00  0.00    -0.170 F 
ATOM     22  F   UNL     1      -5.280 -10.413  20.780  1.00  0.00    -0.170 F 
ATOM     23  F   UNL     1      -4.235 -11.178  19.092  1.00  0.00    -0.170 F 
ENDBRANCH  17  20
ENDBRANCH  14  17
ENDBRANCH   5  10
ENDBRANCH   1   3
BRANCH   1  24
ATOM     24  C   UNL     1       1.029  -6.475  13.025  1.00  0.00     0.261 C 
BRANCH  24  25
ATOM     25  O   UNL     1       0.033  -5.935  12.568  1.00  0.00    -0.365 OA
ATOM     26  H   UNL     1      -0.491  -5.529  13.304  1.00  0.00     0.214 HD
ENDBRANCH  24  25
BRANCH  24  27
ATOM     27  N   UNL     1       1.967  -7.055  12.193  1.00  0.00    -0.259 NA
ATOM     28  C   UNL     1       1.532  -7.906  11.074  1.00  0.00     0.104 C 
ATOM     29  C   UNL     1       3.431  -6.927  12.266  1.00  0.00     0.089 C 
ATOM     30  C   UNL     1       2.841  -8.259  10.352  1.00  0.00     0.025 C 
ATOM     31  C   UNL     1       3.930  -8.046  11.378  1.00  0.00     0.017 C 
BRANCH  28  32
ATOM     32  C   UNL     1       0.762  -9.153  11.517  1.00  0.00     0.197 C 
BRANCH  32  33
ATOM     33  O   UNL     1       1.222 -10.277  11.300  1.00  0.00    -0.377 OA
ATOM     34  H   UNL     1       0.802 -10.653  10.486  1.00  0.00     0.212 HD
ENDBRANCH  32  33
BRANCH  32  35
ATOM     35  N   UNL     1      -0.426  -8.954  12.064  1.00  0.00    -0.305 NA
ATOM     36  H   UNL     1      -0.368  -9.118  13.079  1.00  0.00     0.121 HD
ATOM     37  H   UNL     1      -0.726  -7.984  11.890  1.00  0.00     0.121 HD
ENDBRANCH  32  35
ENDBRANCH  28  32
ENDBRANCH  24  27
ENDBRANCH   1  24
TORSDOF 10
ENDMDL
MODEL 9
REMARK VINA RESULT:    -7.862      2.061      3.586
REMARK INTER + INTRA:         -12.936
REMARK INTER:                 -11.903
REMARK INTRA:                  -1.033
REMARK UNBOUND:                -1.168
REMARK SMILES C[C@H]1N[C@@H](N[C@@H](O)N2CCC[C@H]2[C@@H](N)O)S[C@@H]1[C@H]1CCN[C@H](C(C)(C)C(F)(F)F)C1
REMARK SMILES IDX 5 1 4 3 2 4 17 5 3 6 16 7 1 8 18 10 19 11 30 12 20 13 22 14
REMARK SMILES IDX 21 15 23 17 24 18 25 19 26 20 27 21 28 22 29 23 6 24 7 25
REMARK SMILES IDX 8 27 12 28 9 29 11 30 10 31 13 32 15 33 14 35
REMARK H PARENT 5 2 3 9 21 16 7 26 15 34 14 36 14 37
ROOT
ATOM      1  N   UNL     1       0.930  -7.097  12.787  1.00  0.00    -0.255 NA
ATOM      2  H   UNL     1       0.644  -6.109  12.750  1.00  0.00     0.129 HD
ENDROOT
BRANCH   1   3
ATOM      3  C   UNL     1       0.372  -7.603  13.946  1.00  0.00     0.185 C 
ATOM      4  C   UNL     1      -0.231  -7.591  16.074  1.00  0.00     0.066 C 
ATOM      5  C   UNL     1      -0.740  -8.841  15.737  1.00  0.00     0.069 C 
ATOM      6  N   UNL     1       0.388  -6.902  15.051  1.00  0.00    -0.290 NA
ATOM      7  S   UNL     1      -0.379  -9.155  14.056  1.00  0.00    -0.122 SA
ATOM      8  C   UNL     1      -0.318  -6.942  17.417  1.00  0.00     0.025 C 
ATOM      9  H   UNL     1      -0.108  -6.013  14.894  1.00  0.00     0.125 HD
BRANCH   5  10
ATOM     10  C   UNL     1      -1.459  -9.903  16.476  1.00  0.00     0.006 C 
ATOM     11  C   UNL     1      -1.698 -11.148  15.905  1.00  0.00     0.020 C 
ATOM     12  C   UNL     1      -1.886  -9.671  17.780  1.00  0.00     0.024 C 
ATOM     13  C   UNL     1      -2.390 -12.088  16.637  1.00  0.00     0.081 C 
ATOM     14  C   UNL     1      -2.565 -10.697  18.451  1.00  0.00     0.068 C 
ATOM     15  N   UNL     1      -2.832 -11.882  17.886  1.00  0.00    -0.313 NA
ATOM     16  H   UNL     1      -3.856 -11.994  17.872  1.00  0.00     0.122 HD
BRANCH  14  17
ATOM     17  C   UNL     1      -3.008 -10.533  19.926  1.00  0.00     0.076 C 
ATOM     18  C   UNL     1      -3.293  -9.060  20.260  1.00  0.00     0.022 C 
ATOM     19  C   UNL     1      -4.264 -11.379  20.199  1.00  0.00     0.022 C 
BRANCH  17  20
ATOM     20  C   UNL     1      -1.824 -11.040  20.928  1.00  0.00     0.395 C 
ATOM     21  F   UNL     1      -0.796 -10.193  20.902  1.00  0.00    -0.170 F 
ATOM     22  F   UNL     1      -2.219 -11.134  22.192  1.00  0.00    -0.170 F 
ATOM     23  F   UNL     1      -1.364 -12.239  20.587  1.00  0.00    -0.170 F 
ENDBRANCH  17  20
ENDBRANCH  14  17
ENDBRANCH   5  10
ENDBRANCH   1   3
BRANCH   1  24
ATOM     24  C   UNL     1       2.304  -7.104  12.500  1.00  0.00     0.261 C 
BRANCH  24  25
ATOM     25  O   UNL     1       3.145  -7.015  13.382  1.00  0.00    -0.365 OA
ATOM     26  H   UNL     1       3.623  -6.152  13.295  1.00  0.00     0.214 HD
ENDBRANCH  24  25
BRANCH  24  27
ATOM     27  N   UNL     1       2.674  -7.216  11.173  1.00  0.00    -0.259 NA
ATOM     28  C   UNL     1       1.700  -7.688  10.175  1.00  0.00     0.104 C 
ATOM     29  C   UNL     1       3.983  -6.902  10.578  1.00  0.00     0.089 C 
ATOM     30  C   UNL     1       2.457  -7.571   8.843  1.00  0.00     0.025 C 
ATOM     31  C   UNL     1       3.920  -7.561   9.218  1.00  0.00     0.017 C 
BRANCH  28  32
ATOM     32  C   UNL     1       1.201  -9.111  10.433  1.00  0.00     0.197 C 
BRANCH  32  33
ATOM     33  O   UNL     1       1.999 -10.051  10.481  1.00  0.00    -0.377 OA
ATOM     34  H   UNL     1       2.430 -10.072  11.372  1.00  0.00     0.212 HD
ENDBRANCH  32  33
BRANCH  32  35
ATOM     35  N   UNL     1      -0.109  -9.273  10.523  1.00  0.00    -0.305 NA
ATOM     36  H   UNL     1      -0.313 -10.135  11.048  1.00  0.00     0.121 HD
ATOM     37  H   UNL     1      -0.523  -8.467  11.013  1.00  0.00     0.121 HD
ENDBRANCH  32  35
ENDBRANCH  28  32
ENDBRANCH  24  27
ENDBRANCH   1  24
TORSDOF 10
ENDMDL
MODEL 10
REMARK VINA RESULT:    -7.797      3.462      5.231
REMARK INTER + INTRA:         -12.839
REMARK INTER:                 -11.863
REMARK INTRA:                  -0.976
REMARK UNBOUND:                -1.168
REMARK SMILES C[C@H]1N[C@@H](N[C@@H](O)N2CCC[C@H]2[C@@H](N)O)S[C@@H]1[C@H]1CCN[C@H](C(C)(C)C(F)(F)F)C1
REMARK SMILES IDX 5 1 4 3 2 4 17 5 3 6 16 7 1 8 18 10 19 11 30 12 20 13 22 14
REMARK SMILES IDX 21 15 23 17 24 18 25 19 26 20 27 21 28 22 29 23 6 24 7 25
REMARK SMILES IDX 8 27 12 28 9 29 11 30 10 31 13 32 15 33 14 35
REMARK H PARENT 5 2 3 9 21 16 7 26 15 34 14 36 14 37
ROOT
ATOM      1  N   UNL     1       1.525  -6.336  12.540  1.00  0.00    -0.255 NA
ATOM      2  H   UNL     1       1.757  -5.333  12.512  1.00  0.00     0.129 HD
ENDROOT
BRANCH   1   3
ATOM      3  C   UNL     1       0.839  -6.526  13.724  1.00  0.00     0.185 C 
ATOM      4  C   UNL     1      -0.061  -5.939  15.658  1.00  0.00     0.066 C 
ATOM      5  C   UNL     1      -0.442  -7.277  15.667  1.00  0.00     0.069 C 
ATOM      6  N   UNL     1       0.655  -5.529  14.552  1.00  0.00    -0.290 NA
ATOM      7  S   UNL     1       0.174  -8.041  14.221  1.00  0.00    -0.122 SA
ATOM      8  C   UNL     1      -0.378  -4.930  16.714  1.00  0.00     0.025 C 
ATOM      9  H   UNL     1       0.134  -4.782  14.071  1.00  0.00     0.125 HD
BRANCH   5  10
ATOM     10  C   UNL     1      -1.194  -8.136  16.609  1.00  0.00     0.006 C 
ATOM     11  C   UNL     1      -1.523  -7.697  17.886  1.00  0.00     0.020 C 
ATOM     12  C   UNL     1      -1.611  -9.402  16.208  1.00  0.00     0.024 C 
ATOM     13  C   UNL     1      -2.208  -8.551  18.722  1.00  0.00     0.081 C 
ATOM     14  C   UNL     1      -2.321 -10.191  17.124  1.00  0.00     0.068 C 
ATOM     15  N   UNL     1      -2.600  -9.783  18.370  1.00  0.00    -0.313 NA
ATOM     16  H   UNL     1      -2.153 -10.446  19.019  1.00  0.00     0.122 HD
BRANCH  14  17
ATOM     17  C   UNL     1      -2.874 -11.581  16.725  1.00  0.00     0.076 C 
ATOM     18  C   UNL     1      -1.745 -12.620  16.623  1.00  0.00     0.022 C 
ATOM     19  C   UNL     1      -3.919 -12.051  17.751  1.00  0.00     0.022 C 
BRANCH  17  20
ATOM     20  C   UNL     1      -3.594 -11.500  15.263  1.00  0.00     0.395 C 
ATOM     21  F   UNL     1      -4.483 -10.508  15.235  1.00  0.00    -0.170 F 
ATOM     22  F   UNL     1      -2.737 -11.281  14.273  1.00  0.00    -0.170 F 
ATOM     23  F   UNL     1      -4.237 -12.623  14.963  1.00  0.00    -0.170 F 
ENDBRANCH  17  20
ENDBRANCH  14  17
ENDBRANCH   5  10
ENDBRANCH   1   3
BRANCH   1  24
ATOM     24  C   UNL     1       2.707  -7.007  12.192  1.00  0.00     0.261 C 
BRANCH  24  25
ATOM     25  O   UNL     1       3.545  -7.309  13.029  1.00  0.00    -0.365 OA
ATOM     26  H   UNL     1       4.444  -7.053  12.702  1.00  0.00     0.214 HD
ENDBRANCH  24  25
BRANCH  24  27
ATOM     27  N   UNL     1       2.891  -7.319  10.858  1.00  0.00    -0.259 NA
ATOM     28  C   UNL     1       1.762  -7.823  10.059  1.00  0.00     0.104 C 
ATOM     29  C   UNL     1       4.129  -7.202  10.073  1.00  0.00     0.089 C 
ATOM     30  C   UNL     1       2.344  -7.943   8.641  1.00  0.00     0.025 C 
ATOM     31  C   UNL     1       3.840  -8.019   8.832  1.00  0.00     0.017 C 
BRANCH  28  32
ATOM     32  C   UNL     1       1.197  -9.151  10.566  1.00  0.00     0.197 C 
BRANCH  32  33
ATOM     33  O   UNL     1       1.955 -10.092  10.823  1.00  0.00    -0.377 OA
ATOM     34  H   UNL     1       1.431 -10.929  10.883  1.00  0.00     0.212 HD
ENDBRANCH  32  33
BRANCH  32  35
ATOM     35  N   UNL     1      -0.120  -9.248  10.639  1.00  0.00    -0.305 NA
ATOM     36  H   UNL     1      -0.521  -9.194   9.692  1.00  0.00     0.121 HD
ATOM     37  H   UNL     1      -0.376 -10.148  11.069  1.00  0.00     0.121 HD
ENDBRANCH  32  35
ENDBRANCH  28  32
ENDBRANCH  24  27
ENDBRANCH   1  24
TORSDOF 10
ENDMDL
MODEL 11
REMARK VINA RESULT:    -7.785      2.191      3.583
REMARK INTER + INTRA:         -12.821
REMARK INTER:                 -11.714
REMARK INTRA:                  -1.107
REMARK UNBOUND:                -1.168
REMARK SMILES C[C@H]1N[C@@H](N[C@@H](O)N2CCC[C@H]2[C@@H](N)O)S[C@@H]1[C@H]1CCN[C@H](C(C)(C)C(F)(F)F)C1
REMARK SMILES IDX 5 1 4 3 2 4 17 5 3 6 16 7 1 8 18 10 19 11 30 12 20 13 22 14
REMARK SMILES IDX 21 15 23 17 24 18 25 19 26 20 27 21 28 22 29 23 6 24 7 25
REMARK SMILES IDX 8 27 12 28 9 29 11 30 10 31 13 32 15 33 14 35
REMARK H PARENT 5 2 3 9 21 16 7 26 15 34 14 36 14 37
ROOT
ATOM      1  N   UNL     1       0.965  -6.933  12.617  1.00  0.00    -0.255 NA
ATOM      2  H   UNL     1       0.847  -5.914  12.705  1.00  0.00     0.129 HD
ENDROOT
BRANCH   1   3
ATOM      3  C   UNL     1       0.371  -7.475  13.741  1.00  0.00     0.185 C 
ATOM      4  C   UNL     1      -0.530  -9.065  14.987  1.00  0.00     0.066 C 
ATOM      5  C   UNL     1      -0.612  -8.028  15.911  1.00  0.00     0.069 C 
ATOM      6  N   UNL     1       0.033  -8.738  13.770  1.00  0.00    -0.290 NA
ATOM      7  S   UNL     1       0.024  -6.576  15.175  1.00  0.00    -0.122 SA
ATOM      8  C   UNL     1      -0.972 -10.475  15.210  1.00  0.00     0.025 C 
ATOM      9  H   UNL     1       0.872  -9.316  13.620  1.00  0.00     0.125 HD
BRANCH   5  10
ATOM     10  C   UNL     1      -1.121  -7.909  17.295  1.00  0.00     0.006 C 
ATOM     11  C   UNL     1      -1.167  -6.681  17.947  1.00  0.00     0.020 C 
ATOM     12  C   UNL     1      -1.591  -9.038  17.959  1.00  0.00     0.024 C 
ATOM     13  C   UNL     1      -1.633  -6.639  19.242  1.00  0.00     0.081 C 
ATOM     14  C   UNL     1      -2.065  -8.891  19.270  1.00  0.00     0.068 C 
ATOM     15  N   UNL     1      -2.070  -7.715  19.913  1.00  0.00    -0.313 NA
ATOM     16  H   UNL     1      -1.477  -7.818  20.749  1.00  0.00     0.122 HD
BRANCH  14  17
ATOM     17  C   UNL     1      -2.665 -10.090  20.044  1.00  0.00     0.076 C 
ATOM     18  C   UNL     1      -3.853  -9.652  20.915  1.00  0.00     0.022 C 
ATOM     19  C   UNL     1      -3.118 -11.183  19.061  1.00  0.00     0.022 C 
BRANCH  17  20
ATOM     20  C   UNL     1      -1.543 -10.733  21.040  1.00  0.00     0.395 C 
ATOM     21  F   UNL     1      -1.388 -12.033  20.792  1.00  0.00    -0.170 F 
ATOM     22  F   UNL     1      -0.348 -10.167  20.910  1.00  0.00    -0.170 F 
ATOM     23  F   UNL     1      -1.882 -10.606  22.318  1.00  0.00    -0.170 F 
ENDBRANCH  17  20
ENDBRANCH  14  17
ENDBRANCH   5  10
ENDBRANCH   1   3
BRANCH   1  24
ATOM     24  C   UNL     1       2.307  -7.129  12.257  1.00  0.00     0.261 C 
BRANCH  24  25
ATOM     25  O   UNL     1       3.196  -7.178  13.094  1.00  0.00    -0.365 OA
ATOM     26  H   UNL     1       3.999  -7.601  12.698  1.00  0.00     0.214 HD
ENDBRANCH  24  25
BRANCH  24  27
ATOM     27  N   UNL     1       2.590  -7.265  10.911  1.00  0.00    -0.259 NA
ATOM     28  C   UNL     1       1.540  -7.712   9.981  1.00  0.00     0.104 C 
ATOM     29  C   UNL     1       3.868  -7.002  10.233  1.00  0.00     0.089 C 
ATOM     30  C   UNL     1       2.216  -7.632   8.603  1.00  0.00     0.025 C 
ATOM     31  C   UNL     1       3.699  -7.671   8.886  1.00  0.00     0.017 C 
BRANCH  28  32
ATOM     32  C   UNL     1       1.009  -9.114  10.284  1.00  0.00     0.197 C 
BRANCH  32  33
ATOM     33  O   UNL     1      -0.165  -9.274  10.629  1.00  0.00    -0.377 OA
ATOM     34  H   UNL     1      -0.465  -8.486  11.149  1.00  0.00     0.212 HD
ENDBRANCH  32  33
BRANCH  32  35
ATOM     35  N   UNL     1       1.884 -10.105  10.227  1.00  0.00    -0.305 NA
ATOM     36  H   UNL     1       1.424 -10.985  10.499  1.00  0.00     0.121 HD
ATOM     37  H   UNL     1       2.245 -10.190   9.266  1.00  0.00     0.121 HD
ENDBRANCH  32  35
ENDBRANCH  28  32
ENDBRANCH  24  27
ENDBRANCH   1  24
TORSDOF 10
ENDMDL
MODEL 12
REMARK VINA RESULT:    -7.753      1.959      3.133
REMARK INTER + INTRA:         -12.774
REMARK INTER:                 -11.769
REMARK INTRA:                  -1.005
REMARK UNBOUND:                -1.168
REMARK SMILES C[C@H]1N[C@@H](N[C@@H](O)N2CCC[C@H]2[C@@H](N)O)S[C@@H]1[C@H]1CCN[C@H](C(C)(C)C(F)(F)F)C1
REMARK SMILES IDX 5 1 4 3 2 4 17 5 3 6 16 7 1 8 18 10 19 11 30 12 20 13 22 14
REMARK SMILES IDX 21 15 23 17 24 18 25 19 26 20 27 21 28 22 29 23 6 24 7 25
REMARK SMILES IDX 8 27 12 28 9 29 11 30 10 31 13 32 15 33 14 35
REMARK H PARENT 5 2 3 9 21 16 7 26 15 34 14 36 14 37
ROOT
ATOM      1  N   UNL     1       0.910  -6.753  14.391  1.00  0.00    -0.255 NA
ATOM      2  H   UNL     1       1.752  -7.332  14.520  1.00  0.00     0.129 HD
ENDROOT
BRANCH   1   3
ATOM      3  C   UNL     1      -0.005  -7.218  15.317  1.00  0.00     0.185 C 
ATOM      4  C   UNL     1      -1.471  -7.065  16.967  1.00  0.00     0.066 C 
ATOM      5  C   UNL     1      -1.563  -8.437  16.756  1.00  0.00     0.069 C 
ATOM      6  N   UNL     1      -0.593  -6.390  16.142  1.00  0.00    -0.290 NA
ATOM      7  S   UNL     1      -0.455  -8.878  15.478  1.00  0.00    -0.122 SA
ATOM      8  C   UNL     1      -2.246  -6.279  17.975  1.00  0.00     0.025 C 
ATOM      9  H   UNL     1      -1.112  -5.685  15.601  1.00  0.00     0.125 HD
BRANCH   5  10
ATOM     10  C   UNL     1      -2.342  -9.533  17.374  1.00  0.00     0.006 C 
ATOM     11  C   UNL     1      -2.828 -10.592  16.616  1.00  0.00     0.020 C 
ATOM     12  C   UNL     1      -2.575  -9.527  18.745  1.00  0.00     0.024 C 
ATOM     13  C   UNL     1      -3.563 -11.572  17.246  1.00  0.00     0.081 C 
ATOM     14  C   UNL     1      -3.318 -10.580  19.299  1.00  0.00     0.068 C 
ATOM     15  N   UNL     1      -3.822 -11.579  18.562  1.00  0.00    -0.313 NA
ATOM     16  H   UNL     1      -4.846 -11.558  18.674  1.00  0.00     0.122 HD
BRANCH  14  17
ATOM     17  C   UNL     1      -3.558 -10.674  20.825  1.00  0.00     0.076 C 
ATOM     18  C   UNL     1      -4.173  -9.376  21.373  1.00  0.00     0.022 C 
ATOM     19  C   UNL     1      -4.484 -11.861  21.145  1.00  0.00     0.022 C 
BRANCH  17  20
ATOM     20  C   UNL     1      -2.142 -10.908  21.603  1.00  0.00     0.395 C 
ATOM     21  F   UNL     1      -1.431  -9.781  21.629  1.00  0.00    -0.170 F 
ATOM     22  F   UNL     1      -2.301 -11.296  22.863  1.00  0.00    -0.170 F 
ATOM     23  F   UNL     1      -1.399 -11.838  21.014  1.00  0.00    -0.170 F 
ENDBRANCH  17  20
ENDBRANCH  14  17
ENDBRANCH   5  10
ENDBRANCH   1   3
BRANCH   1  24
ATOM     24  C   UNL     1       0.686  -6.714  13.007  1.00  0.00     0.261 C 
BRANCH  24  25
ATOM     25  O   UNL     1      -0.005  -5.847  12.492  1.00  0.00    -0.365 OA
ATOM     26  H   UNL     1       0.573  -5.108  12.176  1.00  0.00     0.214 HD
ENDBRANCH  24  25
BRANCH  24  27
ATOM     27  N   UNL     1       1.281  -7.697  12.239  1.00  0.00    -0.259 NA
ATOM     28  C   UNL     1       2.652  -7.508  11.737  1.00  0.00     0.104 C 
ATOM     29  C   UNL     1       0.706  -8.990  11.836  1.00  0.00     0.089 C 
ATOM     30  C   UNL     1       2.970  -8.839  11.037  1.00  0.00     0.025 C 
ATOM     31  C   UNL     1       1.626  -9.456  10.729  1.00  0.00     0.017 C 
BRANCH  28  32
ATOM     32  C   UNL     1       2.799  -6.311  10.796  1.00  0.00     0.197 C 
BRANCH  32  33
ATOM     33  O   UNL     1       2.445  -6.399   9.617  1.00  0.00    -0.377 OA
ATOM     34  H   UNL     1       2.880  -7.184   9.200  1.00  0.00     0.212 HD
ENDBRANCH  32  33
BRANCH  32  35
ATOM     35  N   UNL     1       3.383  -5.233  11.294  1.00  0.00    -0.305 NA
ATOM     36  H   UNL     1       3.734  -4.646  10.524  1.00  0.00     0.121 HD
ATOM     37  H   UNL     1       2.701  -4.698  11.850  1.00  0.00     0.121 HD
ENDBRANCH  32  35
ENDBRANCH  28  32
ENDBRANCH  24  27
ENDBRANCH   1  24
TORSDOF 10
ENDMDL
MODEL 13
REMARK VINA RESULT:    -7.628      3.515      5.351
REMARK INTER + INTRA:         -12.586
REMARK INTER:                 -11.882
REMARK INTRA:                  -0.704
REMARK UNBOUND:                -1.168
REMARK SMILES C[C@H]1N[C@@H](N[C@@H](O)N2CCC[C@H]2[C@@H](N)O)S[C@@H]1[C@H]1CCN[C@H](C(C)(C)C(F)(F)F)C1
REMARK SMILES IDX 5 1 4 3 2 4 17 5 3 6 16 7 1 8 18 10 19 11 30 12 20 13 22 14
REMARK SMILES IDX 21 15 23 17 24 18 25 19 26 20 27 21 28 22 29 23 6 24 7 25
REMARK SMILES IDX 8 27 12 28 9 29 11 30 10 31 13 32 15 33 14 35
REMARK H PARENT 5 2 3 9 21 16 7 26 15 34 14 36 14 37
ROOT
ATOM      1  N   UNL     1       0.901  -9.073  10.805  1.00  0.00    -0.255 NA
ATOM      2  H   UNL     1       0.048  -9.427  10.348  1.00  0.00     0.129 HD
ENDROOT
BRANCH   1   3
ATOM      3  C   UNL     1       0.523  -8.744  12.093  1.00  0.00     0.185 C 
ATOM      4  C   UNL     1       0.361  -7.464  13.890  1.00  0.00     0.066 C 
ATOM      5  C   UNL     1      -0.362  -8.554  14.364  1.00  0.00     0.069 C 
ATOM      6  N   UNL     1       0.848  -7.584  12.604  1.00  0.00    -0.290 NA
ATOM      7  S   UNL     1      -0.385  -9.788  13.127  1.00  0.00    -0.122 SA
ATOM      8  C   UNL     1       0.626  -6.196  14.635  1.00  0.00     0.025 C 
ATOM      9  H   UNL     1       0.450  -6.834  12.020  1.00  0.00     0.125 HD
BRANCH   5  10
ATOM     10  C   UNL     1      -1.051  -8.868  15.635  1.00  0.00     0.006 C 
ATOM     11  C   UNL     1      -1.146  -7.932  16.659  1.00  0.00     0.020 C 
ATOM     12  C   UNL     1      -1.644 -10.115  15.810  1.00  0.00     0.024 C 
ATOM     13  C   UNL     1      -1.784  -8.292  17.826  1.00  0.00     0.081 C 
ATOM     14  C   UNL     1      -2.288 -10.381  17.027  1.00  0.00     0.068 C 
ATOM     15  N   UNL     1      -2.343  -9.493  18.029  1.00  0.00    -0.313 NA
ATOM     16  H   UNL     1      -1.874  -9.917  18.843  1.00  0.00     0.122 HD
BRANCH  14  17
ATOM     17  C   UNL     1      -3.027 -11.721  17.266  1.00  0.00     0.076 C 
ATOM     18  C   UNL     1      -2.037 -12.891  17.373  1.00  0.00     0.022 C 
ATOM     19  C   UNL     1      -3.873 -11.639  18.548  1.00  0.00     0.022 C 
BRANCH  17  20
ATOM     20  C   UNL     1      -4.026 -12.041  16.015  1.00  0.00     0.395 C 
ATOM     21  F   UNL     1      -5.227 -12.410  16.459  1.00  0.00    -0.170 F 
ATOM     22  F   UNL     1      -4.211 -10.996  15.217  1.00  0.00    -0.170 F 
ATOM     23  F   UNL     1      -3.563 -13.023  15.249  1.00  0.00    -0.170 F 
ENDBRANCH  17  20
ENDBRANCH  14  17
ENDBRANCH   5  10
ENDBRANCH   1   3
BRANCH   1  24
ATOM     24  C   UNL     1       1.473  -8.174   9.892  1.00  0.00     0.261 C 
BRANCH  24  25
ATOM     25  O   UNL     1       0.785  -7.448   9.189  1.00  0.00    -0.365 OA
ATOM     26  H   UNL     1       0.027  -7.967   8.820  1.00  0.00     0.214 HD
ENDBRANCH  24  25
BRANCH  24  27
ATOM     27  N   UNL     1       2.852  -8.138   9.815  1.00  0.00    -0.259 NA
ATOM     28  C   UNL     1       3.537  -8.681   8.630  1.00  0.00     0.104 C 
ATOM     29  C   UNL     1       3.791  -7.591  10.806  1.00  0.00     0.089 C 
ATOM     30  C   UNL     1       5.018  -8.360   8.885  1.00  0.00     0.025 C 
ATOM     31  C   UNL     1       5.128  -8.157  10.378  1.00  0.00     0.017 C 
BRANCH  28  32
ATOM     32  C   UNL     1       3.297 -10.177   8.417  1.00  0.00     0.197 C 
BRANCH  32  33
ATOM     33  O   UNL     1       2.672 -10.573   7.430  1.00  0.00    -0.377 OA
ATOM     34  H   UNL     1       2.430 -11.524   7.552  1.00  0.00     0.212 HD
ENDBRANCH  32  33
BRANCH  32  35
ATOM     35  N   UNL     1       3.727 -10.988   9.371  1.00  0.00    -0.305 NA
ATOM     36  H   UNL     1       3.751 -11.954   9.014  1.00  0.00     0.121 HD
ATOM     37  H   UNL     1       4.673 -10.706   9.662  1.00  0.00     0.121 HD
ENDBRANCH  32  35
ENDBRANCH  28  32
ENDBRANCH  24  27
ENDBRANCH   1  24
TORSDOF 10
ENDMDL
MODEL 14
REMARK VINA RESULT:    -7.595      2.737      4.137
REMARK INTER + INTRA:         -12.536
REMARK INTER:                 -11.969
REMARK INTRA:                  -0.567
REMARK UNBOUND:                -1.168
REMARK SMILES C[C@H]1N[C@@H](N[C@@H](O)N2CCC[C@H]2[C@@H](N)O)S[C@@H]1[C@H]1CCN[C@H](C(C)(C)C(F)(F)F)C1
REMARK SMILES IDX 5 1 4 3 2 4 17 5 3 6 16 7 1 8 18 10 19 11 30 12 20 13 22 14
REMARK SMILES IDX 21 15 23 17 24 18 25 19 26 20 27 21 28 22 29 23 6 24 7 25
REMARK SMILES IDX 8 27 12 28 9 29 11 30 10 31 13 32 15 33 14 35
REMARK H PARENT 5 2 3 9 21 16 7 26 15 34 14 36 14 37
ROOT
ATOM      1  N   UNL     1       0.371  -9.709  11.872  1.00  0.00    -0.255 NA
ATOM      2  H   UNL     1      -0.565  -9.993  11.547  1.00  0.00     0.129 HD
ENDROOT
BRANCH   1   3
ATOM      3  C   UNL     1       0.168  -9.070  13.080  1.00  0.00     0.185 C 
ATOM      4  C   UNL     1       0.330  -7.428  14.553  1.00  0.00     0.066 C 
ATOM      5  C   UNL     1      -0.448  -8.293  15.315  1.00  0.00     0.069 C 
ATOM      6  N   UNL     1       0.663  -7.878  13.292  1.00  0.00    -0.290 NA
ATOM      7  S   UNL     1      -0.730  -9.749  14.390  1.00  0.00    -0.122 SA
ATOM      8  C   UNL     1       0.802  -6.074  14.973  1.00  0.00     0.025 C 
ATOM      9  H   UNL     1       0.286  -7.225  12.590  1.00  0.00     0.125 HD
BRANCH   5  10
ATOM     10  C   UNL     1      -1.029  -8.243  16.676  1.00  0.00     0.006 C 
ATOM     11  C   UNL     1      -1.037  -7.066  17.416  1.00  0.00     0.020 C 
ATOM     12  C   UNL     1      -1.605  -9.384  17.225  1.00  0.00     0.024 C 
ATOM     13  C   UNL     1      -1.575  -7.088  18.684  1.00  0.00     0.081 C 
ATOM     14  C   UNL     1      -2.145  -9.302  18.516  1.00  0.00     0.068 C 
ATOM     15  N   UNL     1      -2.115  -8.178  19.246  1.00  0.00    -0.313 NA
ATOM     16  H   UNL     1      -1.580  -8.381  20.102  1.00  0.00     0.122 HD
BRANCH  14  17
ATOM     17  C   UNL     1      -2.861 -10.513  19.163  1.00  0.00     0.076 C 
ATOM     18  C   UNL     1      -1.878 -11.374  19.971  1.00  0.00     0.022 C 
ATOM     19  C   UNL     1      -4.000 -10.029  20.078  1.00  0.00     0.022 C 
BRANCH  17  20
ATOM     20  C   UNL     1      -3.507 -11.466  18.006  1.00  0.00     0.395 C 
ATOM     21  F   UNL     1      -4.517 -12.181  18.500  1.00  0.00    -0.170 F 
ATOM     22  F   UNL     1      -3.985 -10.779  16.975  1.00  0.00    -0.170 F 
ATOM     23  F   UNL     1      -2.617 -12.318  17.511  1.00  0.00    -0.170 F 
ENDBRANCH  17  20
ENDBRANCH  14  17
ENDBRANCH   5  10
ENDBRANCH   1   3
BRANCH   1  24
ATOM     24  C   UNL     1       0.995  -9.124  10.760  1.00  0.00     0.261 C 
BRANCH  24  25
ATOM     25  O   UNL     1       0.353  -8.571   9.880  1.00  0.00    -0.365 OA
ATOM     26  H   UNL     1       0.823  -7.746   9.597  1.00  0.00     0.214 HD
ENDBRANCH  24  25
BRANCH  24  27
ATOM     27  N   UNL     1       2.374  -9.195  10.695  1.00  0.00    -0.259 NA
ATOM     28  C   UNL     1       3.191  -8.059  11.152  1.00  0.00     0.104 C 
ATOM     29  C   UNL     1       3.192 -10.319  10.214  1.00  0.00     0.089 C 
ATOM     30  C   UNL     1       4.634  -8.568  11.015  1.00  0.00     0.025 C 
ATOM     31  C   UNL     1       4.561  -9.703  10.021  1.00  0.00     0.017 C 
BRANCH  28  32
ATOM     32  C   UNL     1       2.953  -6.775  10.355  1.00  0.00     0.197 C 
BRANCH  32  33
ATOM     33  O   UNL     1       2.907  -5.684  10.932  1.00  0.00    -0.377 OA
ATOM     34  H   UNL     1       2.113  -5.181  10.622  1.00  0.00     0.212 HD
ENDBRANCH  32  33
BRANCH  32  35
ATOM     35  N   UNL     1       2.733  -6.913   9.058  1.00  0.00    -0.305 NA
ATOM     36  H   UNL     1       2.920  -7.887   8.780  1.00  0.00     0.121 HD
ATOM     37  H   UNL     1       1.752  -6.679   8.849  1.00  0.00     0.121 HD
ENDBRANCH  32  35
ENDBRANCH  28  32
ENDBRANCH  24  27
ENDBRANCH   1  24
TORSDOF 10
ENDMDL
MODEL 15
REMARK VINA RESULT:    -7.498      3.329      4.334
REMARK INTER + INTRA:         -12.392
REMARK INTER:                 -11.357
REMARK INTRA:                  -1.035
REMARK UNBOUND:                -1.168
REMARK SMILES C[C@H]1N[C@@H](N[C@@H](O)N2CCC[C@H]2[C@@H](N)O)S[C@@H]1[C@H]1CCN[C@H](C(C)(C)C(F)(F)F)C1
REMARK SMILES IDX 5 1 4 3 2 4 17 5 3 6 16 7 1 8 18 10 19 11 30 12 20 13 22 14
REMARK SMILES IDX 21 15 23 17 24 18 25 19 26 20 27 21 28 22 29 23 6 24 7 25
REMARK SMILES IDX 8 27 12 28 9 29 11 30 10 31 13 32 15 33 14 35
REMARK H PARENT 5 2 3 9 21 16 7 26 15 34 14 36 14 37
ROOT
ATOM      1  N   UNL     1       0.734  -8.076  12.151  1.00  0.00    -0.255 NA
ATOM      2  H   UNL     1       1.687  -7.765  12.389  1.00  0.00     0.129 HD
ENDROOT
BRANCH   1   3
ATOM      3  C   UNL     1       0.159  -8.460  13.347  1.00  0.00     0.185 C 
ATOM      4  C   UNL     1      -0.869  -9.824  14.752  1.00  0.00     0.066 C 
ATOM      5  C   UNL     1      -0.715  -8.742  15.614  1.00  0.00     0.069 C 
ATOM      6  N   UNL     1      -0.365  -9.652  13.479  1.00  0.00    -0.290 NA
ATOM      7  S   UNL     1       0.073  -7.447  14.744  1.00  0.00    -0.122 SA
ATOM      8  C   UNL     1      -1.501 -11.135  15.095  1.00  0.00     0.025 C 
ATOM      9  H   UNL     1       0.361 -10.361  13.304  1.00  0.00     0.125 HD
BRANCH   5  10
ATOM     10  C   UNL     1      -1.084  -8.476  17.022  1.00  0.00     0.006 C 
ATOM     11  C   UNL     1      -1.622  -9.471  17.831  1.00  0.00     0.020 C 
ATOM     12  C   UNL     1      -0.867  -7.214  17.566  1.00  0.00     0.024 C 
ATOM     13  C   UNL     1      -1.962  -9.154  19.128  1.00  0.00     0.081 C 
ATOM     14  C   UNL     1      -1.228  -6.994  18.903  1.00  0.00     0.068 C 
ATOM     15  N   UNL     1      -1.786  -7.941  19.670  1.00  0.00    -0.313 NA
ATOM     16  H   UNL     1      -2.711  -7.597  19.962  1.00  0.00     0.122 HD
BRANCH  14  17
ATOM     17  C   UNL     1      -0.954  -5.636  19.594  1.00  0.00     0.076 C 
ATOM     18  C   UNL     1      -0.767  -5.810  21.110  1.00  0.00     0.022 C 
ATOM     19  C   UNL     1       0.299  -4.976  18.990  1.00  0.00     0.022 C 
BRANCH  17  20
ATOM     20  C   UNL     1      -2.218  -4.627  19.371  1.00  0.00     0.395 C 
ATOM     21  F   UNL     1      -2.686  -4.200  20.543  1.00  0.00    -0.170 F 
ATOM     22  F   UNL     1      -1.904  -3.550  18.662  1.00  0.00    -0.170 F 
ATOM     23  F   UNL     1      -3.220  -5.221  18.732  1.00  0.00    -0.170 F 
ENDBRANCH  17  20
ENDBRANCH  14  17
ENDBRANCH   5  10
ENDBRANCH   1   3
BRANCH   1  24
ATOM     24  C   UNL     1       0.877  -8.913  11.035  1.00  0.00     0.261 C 
BRANCH  24  25
ATOM     25  O   UNL     1      -0.090  -9.330  10.416  1.00  0.00    -0.365 OA
ATOM     26  H   UNL     1      -0.142  -8.873   9.538  1.00  0.00     0.214 HD
ENDBRANCH  24  25
BRANCH  24  27
ATOM     27  N   UNL     1       2.162  -9.254  10.657  1.00  0.00    -0.259 NA
ATOM     28  C   UNL     1       3.237  -8.250  10.719  1.00  0.00     0.104 C 
ATOM     29  C   UNL     1       2.641 -10.561  10.182  1.00  0.00     0.089 C 
ATOM     30  C   UNL     1       4.497  -9.038  10.328  1.00  0.00     0.025 C 
ATOM     31  C   UNL     1       3.990 -10.246   9.574  1.00  0.00     0.017 C 
BRANCH  28  32
ATOM     32  C   UNL     1       3.002  -7.045   9.806  1.00  0.00     0.197 C 
BRANCH  32  33
ATOM     33  O   UNL     1       2.614  -5.973  10.279  1.00  0.00    -0.377 OA
ATOM     34  H   UNL     1       2.955  -5.877  11.203  1.00  0.00     0.212 HD
ENDBRANCH  32  33
BRANCH  32  35
ATOM     35  N   UNL     1       3.166  -7.243   8.508  1.00  0.00    -0.305 NA
ATOM     36  H   UNL     1       3.891  -6.604   8.152  1.00  0.00     0.121 HD
ATOM     37  H   UNL     1       3.455  -8.217   8.343  1.00  0.00     0.121 HD
ENDBRANCH  32  35
ENDBRANCH  28  32
ENDBRANCH  24  27
ENDBRANCH   1  24
TORSDOF 10
ENDMDL
MODEL 16
REMARK VINA RESULT:    -7.446      2.852      3.876
REMARK INTER + INTRA:         -12.314
REMARK INTER:                 -11.459
REMARK INTRA:                  -0.855
REMARK UNBOUND:                -1.168
REMARK SMILES C[C@H]1N[C@@H](N[C@@H](O)N2CCC[C@H]2[C@@H](N)O)S[C@@H]1[C@H]1CCN[C@H](C(C)(C)C(F)(F)F)C1
REMARK SMILES IDX 5 1 4 3 2 4 17 5 3 6 16 7 1 8 18 10 19 11 30 12 20 13 22 14
REMARK SMILES IDX 21 15 23 17 24 18 25 19 26 20 27 21 28 22 29 23 6 24 7 25
REMARK SMILES IDX 8 27 12 28 9 29 11 30 10 31 13 32 15 33 14 35
REMARK H PARENT 5 2 3 9 21 16 7 26 15 34 14 36 14 37
ROOT
ATOM      1  N   UNL     1       0.703  -6.632  15.732  1.00  0.00    -0.255 NA
ATOM      2  H   UNL     1       0.779  -6.502  14.713  1.00  0.00     0.129 HD
ENDROOT
BRANCH   1   3
ATOM      3  C   UNL     1      -0.129  -7.722  15.906  1.00  0.00     0.185 C 
ATOM      4  C   UNL     1      -1.124  -9.617  15.349  1.00  0.00     0.066 C 
ATOM      5  C   UNL     1      -1.656  -9.490  16.628  1.00  0.00     0.069 C 
ATOM      6  N   UNL     1      -0.259  -8.615  14.959  1.00  0.00    -0.290 NA
ATOM      7  S   UNL     1      -1.050  -8.013  17.338  1.00  0.00    -0.122 SA
ATOM      8  C   UNL     1      -1.391 -10.737  14.396  1.00  0.00     0.025 C 
ATOM      9  H   UNL     1       0.662  -9.026  14.753  1.00  0.00     0.125 HD
BRANCH   5  10
ATOM     10  C   UNL     1      -2.593 -10.291  17.448  1.00  0.00     0.006 C 
ATOM     11  C   UNL     1      -3.375 -11.293  16.883  1.00  0.00     0.020 C 
ATOM     12  C   UNL     1      -2.681 -10.064  18.818  1.00  0.00     0.024 C 
ATOM     13  C   UNL     1      -4.241 -11.990  17.696  1.00  0.00     0.081 C 
ATOM     14  C   UNL     1      -3.579 -10.839  19.565  1.00  0.00     0.068 C 
ATOM     15  N   UNL     1      -4.363 -11.776  19.014  1.00  0.00    -0.313 NA
ATOM     16  H   UNL     1      -5.340 -11.504  19.192  1.00  0.00     0.122 HD
BRANCH  14  17
ATOM     17  C   UNL     1      -3.680 -10.688  21.102  1.00  0.00     0.076 C 
ATOM     18  C   UNL     1      -4.219  -9.301  21.491  1.00  0.00     0.022 C 
ATOM     19  C   UNL     1      -4.594 -11.780  21.684  1.00  0.00     0.022 C 
BRANCH  17  20
ATOM     20  C   UNL     1      -2.204 -10.844  21.781  1.00  0.00     0.395 C 
ATOM     21  F   UNL     1      -1.501 -11.790  21.159  1.00  0.00    -0.170 F 
ATOM     22  F   UNL     1      -1.487  -9.727  21.725  1.00  0.00    -0.170 F 
ATOM     23  F   UNL     1      -2.280 -11.179  23.064  1.00  0.00    -0.170 F 
ENDBRANCH  17  20
ENDBRANCH  14  17
ENDBRANCH   5  10
ENDBRANCH   1   3
BRANCH   1  24
ATOM     24  C   UNL     1       0.457  -5.355  16.259  1.00  0.00     0.261 C 
BRANCH  24  25
ATOM     25  O   UNL     1      -0.520  -4.700  15.927  1.00  0.00    -0.365 OA
ATOM     26  H   UNL     1      -0.223  -3.844  15.527  1.00  0.00     0.214 HD
ENDBRANCH  24  25
BRANCH  24  27
ATOM     27  N   UNL     1       1.366  -4.860  17.174  1.00  0.00    -0.259 NA
ATOM     28  C   UNL     1       2.693  -4.410  16.723  1.00  0.00     0.104 C 
ATOM     29  C   UNL     1       1.180  -4.700  18.625  1.00  0.00     0.089 C 
ATOM     30  C   UNL     1       3.341  -3.848  17.999  1.00  0.00     0.025 C 
ATOM     31  C   UNL     1       2.587  -4.488  19.141  1.00  0.00     0.017 C 
BRANCH  28  32
ATOM     32  C   UNL     1       3.533  -5.521  16.089  1.00  0.00     0.197 C 
BRANCH  32  33
ATOM     33  O   UNL     1       3.611  -6.627  16.631  1.00  0.00    -0.377 OA
ATOM     34  H   UNL     1       4.122  -6.546  17.475  1.00  0.00     0.212 HD
ENDBRANCH  32  33
BRANCH  32  35
ATOM     35  N   UNL     1       4.208  -5.204  14.997  1.00  0.00    -0.305 NA
ATOM     36  H   UNL     1       5.206  -5.103  15.228  1.00  0.00     0.121 HD
ATOM     37  H   UNL     1       4.093  -5.948  14.293  1.00  0.00     0.121 HD
ENDBRANCH  32  35
ENDBRANCH  28  32
ENDBRANCH  24  27
ENDBRANCH   1  24
TORSDOF 10
ENDMDL
MODEL 17
REMARK VINA RESULT:    -7.332      3.039      4.642
REMARK INTER + INTRA:         -12.143
REMARK INTER:                 -10.963
REMARK INTRA:                  -1.180
REMARK UNBOUND:                -1.168
REMARK SMILES C[C@H]1N[C@@H](N[C@@H](O)N2CCC[C@H]2[C@@H](N)O)S[C@@H]1[C@H]1CCN[C@H](C(C)(C)C(F)(F)F)C1
REMARK SMILES IDX 5 1 4 3 2 4 17 5 3 6 16 7 1 8 18 10 19 11 30 12 20 13 22 14
REMARK SMILES IDX 21 15 23 17 24 18 25 19 26 20 27 21 28 22 29 23 6 24 7 25
REMARK SMILES IDX 8 27 12 28 9 29 11 30 10 31 13 32 15 33 14 35
REMARK H PARENT 5 2 3 9 21 16 7 26 15 34 14 36 14 37
ROOT
ATOM      1  N   UNL     1      -0.313  -5.702  15.814  1.00  0.00    -0.255 NA
ATOM      2  H   UNL     1      -1.164  -5.127  15.739  1.00  0.00     0.129 HD
ENDROOT
BRANCH   1   3
ATOM      3  C   UNL     1      -0.754  -6.991  16.047  1.00  0.00     0.185 C 
ATOM      4  C   UNL     1      -0.834  -9.184  15.768  1.00  0.00     0.066 C 
ATOM      5  C   UNL     1      -1.774  -9.086  16.789  1.00  0.00     0.069 C 
ATOM      6  N   UNL     1      -0.262  -7.994  15.366  1.00  0.00    -0.290 NA
ATOM      7  S   UNL     1      -1.954  -7.402  17.220  1.00  0.00    -0.122 SA
ATOM      8  C   UNL     1      -0.388 -10.447  15.105  1.00  0.00     0.025 C 
ATOM      9  H   UNL     1       0.755  -8.040  15.517  1.00  0.00     0.125 HD
BRANCH   5  10
ATOM     10  C   UNL     1      -2.617 -10.057  17.521  1.00  0.00     0.006 C 
ATOM     11  C   UNL     1      -3.229 -11.122  16.868  1.00  0.00     0.020 C 
ATOM     12  C   UNL     1      -2.786  -9.928  18.896  1.00  0.00     0.024 C 
ATOM     13  C   UNL     1      -4.017 -11.980  17.602  1.00  0.00     0.081 C 
ATOM     14  C   UNL     1      -3.592 -10.865  19.559  1.00  0.00     0.068 C 
ATOM     15  N   UNL     1      -4.216 -11.865  18.923  1.00  0.00    -0.313 NA
ATOM     16  H   UNL     1      -5.227 -11.743  19.073  1.00  0.00     0.122 HD
BRANCH  14  17
ATOM     17  C   UNL     1      -3.770 -10.822  21.097  1.00  0.00     0.076 C 
ATOM     18  C   UNL     1      -4.456  -9.521  21.542  1.00  0.00     0.022 C 
ATOM     19  C   UNL     1      -4.596 -12.031  21.569  1.00  0.00     0.022 C 
BRANCH  17  20
ATOM     20  C   UNL     1      -2.314 -10.881  21.832  1.00  0.00     0.395 C 
ATOM     21  F   UNL     1      -1.742  -9.678  21.833  1.00  0.00    -0.170 F 
ATOM     22  F   UNL     1      -2.387 -11.278  23.097  1.00  0.00    -0.170 F 
ATOM     23  F   UNL     1      -1.483 -11.720  21.222  1.00  0.00    -0.170 F 
ENDBRANCH  17  20
ENDBRANCH  14  17
ENDBRANCH   5  10
ENDBRANCH   1   3
BRANCH   1  24
ATOM     24  C   UNL     1       0.549  -4.993  16.664  1.00  0.00     0.261 C 
BRANCH  24  25
ATOM     25  O   UNL     1       1.692  -4.716  16.334  1.00  0.00    -0.365 OA
ATOM     26  H   UNL     1       1.961  -3.863  16.759  1.00  0.00     0.214 HD
ENDBRANCH  24  25
BRANCH  24  27
ATOM     27  N   UNL     1       0.054  -4.614  17.897  1.00  0.00    -0.259 NA
ATOM     28  C   UNL     1      -1.099  -3.703  17.979  1.00  0.00     0.104 C 
ATOM     29  C   UNL     1       0.541  -5.027  19.223  1.00  0.00     0.089 C 
ATOM     30  C   UNL     1      -1.393  -3.620  19.485  1.00  0.00     0.025 C 
ATOM     31  C   UNL     1      -0.108  -4.034  20.163  1.00  0.00     0.017 C 
BRANCH  28  32
ATOM     32  C   UNL     1      -0.835  -2.327  17.365  1.00  0.00     0.197 C 
BRANCH  32  33
ATOM     33  O   UNL     1       0.317  -1.976  17.095  1.00  0.00    -0.377 OA
ATOM     34  H   UNL     1       0.495  -1.089  17.497  1.00  0.00     0.212 HD
ENDBRANCH  32  33
BRANCH  32  35
ATOM     35  N   UNL     1      -1.883  -1.532  17.217  1.00  0.00    -0.305 NA
ATOM     36  H   UNL     1      -1.707  -0.639  17.697  1.00  0.00     0.121 HD
ATOM     37  H   UNL     1      -2.043  -1.357  16.215  1.00  0.00     0.121 HD
ENDBRANCH  32  35
ENDBRANCH  28  32
ENDBRANCH  24  27
ENDBRANCH   1  24
TORSDOF 10
ENDMDL
MODEL 18
REMARK VINA RESULT:    -7.331      1.572      2.316
REMARK INTER + INTRA:         -12.141
REMARK INTER:                 -10.784
REMARK INTRA:                  -1.357
REMARK UNBOUND:                -1.168
REMARK SMILES C[C@H]1N[C@@H](N[C@@H](O)N2CCC[C@H]2[C@@H](N)O)S[C@@H]1[C@H]1CCN[C@H](C(C)(C)C(F)(F)F)C1
REMARK SMILES IDX 5 1 4 3 2 4 17 5 3 6 16 7 1 8 18 10 19 11 30 12 20 13 22 14
REMARK SMILES IDX 21 15 23 17 24 18 25 19 26 20 27 21 28 22 29 23 6 24 7 25
REMARK SMILES IDX 8 27 12 28 9 29 11 30 10 31 13 32 15 33 14 35
REMARK H PARENT 5 2 3 9 21 16 7 26 15 34 14 36 14 37
ROOT
ATOM      1  N   UNL     1      -0.024  -9.909  13.982  1.00  0.00    -0.255 NA
ATOM      2  H   UNL     1      -0.348 -10.819  13.624  1.00  0.00     0.129 HD
ENDROOT
BRANCH   1   3
ATOM      3  C   UNL     1      -0.692  -9.720  15.177  1.00  0.00     0.185 C 
ATOM      4  C   UNL     1      -2.205 -10.133  16.737  1.00  0.00     0.066 C 
ATOM      5  C   UNL     1      -1.565  -9.071  17.367  1.00  0.00     0.069 C 
ATOM      6  N   UNL     1      -1.697 -10.491  15.505  1.00  0.00    -0.290 NA
ATOM      7  S   UNL     1      -0.289  -8.492  16.323  1.00  0.00    -0.122 SA
ATOM      8  C   UNL     1      -3.357 -10.912  17.284  1.00  0.00     0.025 C 
ATOM      9  H   UNL     1      -1.374 -11.468  15.544  1.00  0.00     0.125 HD
BRANCH   5  10
ATOM     10  C   UNL     1      -1.751  -8.362  18.652  1.00  0.00     0.006 C 
ATOM     11  C   UNL     1      -2.102  -7.017  18.693  1.00  0.00     0.020 C 
ATOM     12  C   UNL     1      -1.602  -9.052  19.851  1.00  0.00     0.024 C 
ATOM     13  C   UNL     1      -2.242  -6.408  19.921  1.00  0.00     0.081 C 
ATOM     14  C   UNL     1      -1.785  -8.350  21.051  1.00  0.00     0.068 C 
ATOM     15  N   UNL     1      -2.081  -7.044  21.090  1.00  0.00    -0.313 NA
ATOM     16  H   UNL     1      -1.319  -6.570  21.596  1.00  0.00     0.122 HD
BRANCH  14  17
ATOM     17  C   UNL     1      -1.701  -9.069  22.420  1.00  0.00     0.076 C 
ATOM     18  C   UNL     1      -2.444  -8.279  23.510  1.00  0.00     0.022 C 
ATOM     19  C   UNL     1      -2.293 -10.485  22.313  1.00  0.00     0.022 C 
BRANCH  17  20
ATOM     20  C   UNL     1      -0.144  -9.200  22.891  1.00  0.00     0.395 C 
ATOM     21  F   UNL     1       0.494  -8.043  22.724  1.00  0.00    -0.170 F 
ATOM     22  F   UNL     1      -0.015  -9.535  24.169  1.00  0.00    -0.170 F 
ATOM     23  F   UNL     1       0.509 -10.123  22.192  1.00  0.00    -0.170 F 
ENDBRANCH  17  20
ENDBRANCH  14  17
ENDBRANCH   5  10
ENDBRANCH   1   3
BRANCH   1  24
ATOM     24  C   UNL     1      -0.085  -9.029  12.891  1.00  0.00     0.261 C 
BRANCH  24  25
ATOM     25  O   UNL     1      -1.122  -8.845  12.272  1.00  0.00    -0.365 OA
ATOM     26  H   UNL     1      -0.968  -9.022  11.310  1.00  0.00     0.214 HD
ENDBRANCH  24  25
BRANCH  24  27
ATOM     27  N   UNL     1       1.079  -8.373  12.539  1.00  0.00    -0.259 NA
ATOM     28  C   UNL     1       1.594  -7.284  13.384  1.00  0.00     0.104 C 
ATOM     29  C   UNL     1       1.936  -8.632  11.371  1.00  0.00     0.089 C 
ATOM     30  C   UNL     1       2.925  -6.902  12.718  1.00  0.00     0.025 C 
ATOM     31  C   UNL     1       2.815  -7.403  11.297  1.00  0.00     0.017 C 
BRANCH  28  32
ATOM     32  C   UNL     1       0.640  -6.092  13.494  1.00  0.00     0.197 C 
BRANCH  32  33
ATOM     33  O   UNL     1       0.455  -5.543  14.584  1.00  0.00    -0.377 OA
ATOM     34  H   UNL     1       1.036  -5.961  15.267  1.00  0.00     0.212 HD
ENDBRANCH  32  33
BRANCH  32  35
ATOM     35  N   UNL     1      -0.010  -5.748  12.394  1.00  0.00    -0.305 NA
ATOM     36  H   UNL     1      -0.942  -6.186  12.395  1.00  0.00     0.121 HD
ATOM     37  H   UNL     1      -0.112  -4.724  12.361  1.00  0.00     0.121 HD
ENDBRANCH  32  35
ENDBRANCH  28  32
ENDBRANCH  24  27
ENDBRANCH   1  24
TORSDOF 10
ENDMDL
MODEL 19
REMARK VINA RESULT:    -7.320      3.353      5.594
REMARK INTER + INTRA:         -12.125
REMARK INTER:                 -11.733
REMARK INTRA:                  -0.391
REMARK UNBOUND:                -1.168
REMARK SMILES C[C@H]1N[C@@H](N[C@@H](O)N2CCC[C@H]2[C@@H](N)O)S[C@@H]1[C@H]1CCN[C@H](C(C)(C)C(F)(F)F)C1
REMARK SMILES IDX 5 1 4 3 2 4 17 5 3 6 16 7 1 8 18 10 19 11 30 12 20 13 22 14
REMARK SMILES IDX 21 15 23 17 24 18 25 19 26 20 27 21 28 22 29 23 6 24 7 25
REMARK SMILES IDX 8 27 12 28 9 29 11 30 10 31 13 32 15 33 14 35
REMARK H PARENT 5 2 3 9 21 16 7 26 15 34 14 36 14 37
ROOT
ATOM      1  N   UNL     1       3.328  -6.294  11.795  1.00  0.00    -0.255 NA
ATOM      2  H   UNL     1       4.316  -6.536  11.956  1.00  0.00     0.129 HD
ENDROOT
BRANCH   1   3
ATOM      3  C   UNL     1       2.685  -6.544  12.993  1.00  0.00     0.185 C 
ATOM      4  C   UNL     1       2.431  -6.550  15.191  1.00  0.00     0.066 C 
ATOM      5  C   UNL     1       1.208  -7.122  14.854  1.00  0.00     0.069 C 
ATOM      6  N   UNL     1       3.250  -6.224  14.129  1.00  0.00    -0.290 NA
ATOM      7  S   UNL     1       1.125  -7.276  13.115  1.00  0.00    -0.122 SA
ATOM      8  C   UNL     1       2.906  -6.249  16.575  1.00  0.00     0.025 C 
ATOM      9  H   UNL     1       3.432  -5.210  14.142  1.00  0.00     0.125 HD
BRANCH   5  10
ATOM     10  C   UNL     1       0.046  -7.617  15.625  1.00  0.00     0.006 C 
ATOM     11  C   UNL     1      -0.621  -6.802  16.534  1.00  0.00     0.020 C 
ATOM     12  C   UNL     1      -0.415  -8.914  15.425  1.00  0.00     0.024 C 
ATOM     13  C   UNL     1      -1.684  -7.327  17.235  1.00  0.00     0.081 C 
ATOM     14  C   UNL     1      -1.518  -9.352  16.172  1.00  0.00     0.068 C 
ATOM     15  N   UNL     1      -2.134  -8.581  17.078  1.00  0.00    -0.313 NA
ATOM     16  H   UNL     1      -2.054  -9.053  17.990  1.00  0.00     0.122 HD
BRANCH  14  17
ATOM     17  C   UNL     1      -2.126 -10.759  15.953  1.00  0.00     0.076 C 
ATOM     18  C   UNL     1      -2.896 -10.831  14.624  1.00  0.00     0.022 C 
ATOM     19  C   UNL     1      -1.016 -11.825  15.967  1.00  0.00     0.022 C 
BRANCH  17  20
ATOM     20  C   UNL     1      -3.182 -11.107  17.148  1.00  0.00     0.395 C 
ATOM     21  F   UNL     1      -2.563 -11.722  18.154  1.00  0.00    -0.170 F 
ATOM     22  F   UNL     1      -3.767 -10.027  17.653  1.00  0.00    -0.170 F 
ATOM     23  F   UNL     1      -4.159 -11.905  16.731  1.00  0.00    -0.170 F 
ENDBRANCH  17  20
ENDBRANCH  14  17
ENDBRANCH   5  10
ENDBRANCH   1   3
BRANCH   1  24
ATOM     24  C   UNL     1       2.986  -6.891  10.573  1.00  0.00     0.261 C 
BRANCH  24  25
ATOM     25  O   UNL     1       2.266  -6.328   9.762  1.00  0.00    -0.365 OA
ATOM     26  H   UNL     1       2.478  -6.652   8.851  1.00  0.00     0.214 HD
ENDBRANCH  24  25
BRANCH  24  27
ATOM     27  N   UNL     1       3.498  -8.148  10.315  1.00  0.00    -0.259 NA
ATOM     28  C   UNL     1       2.668  -9.154   9.633  1.00  0.00     0.104 C 
ATOM     29  C   UNL     1       4.842  -8.653  10.636  1.00  0.00     0.089 C 
ATOM     30  C   UNL     1       3.618 -10.348   9.448  1.00  0.00     0.025 C 
ATOM     31  C   UNL     1       4.706 -10.151  10.477  1.00  0.00     0.017 C 
BRANCH  28  32
ATOM     32  C   UNL     1       1.406  -9.535  10.410  1.00  0.00     0.197 C 
BRANCH  32  33
ATOM     33  O   UNL     1       1.441 -10.443  11.246  1.00  0.00    -0.377 OA
ATOM     34  H   UNL     1       2.121 -10.232  11.934  1.00  0.00     0.212 HD
ENDBRANCH  32  33
BRANCH  32  35
ATOM     35  N   UNL     1       0.293  -8.898  10.084  1.00  0.00    -0.305 NA
ATOM     36  H   UNL     1      -0.452  -9.584   9.895  1.00  0.00     0.121 HD
ATOM     37  H   UNL     1       0.006  -8.287  10.862  1.00  0.00     0.121 HD
ENDBRANCH  32  35
ENDBRANCH  28  32
ENDBRANCH  24  27
ENDBRANCH   1  24
TORSDOF 10
ENDMDL
MODEL 20
REMARK VINA RESULT:    -7.194      3.199      4.662
REMARK INTER + INTRA:         -11.936
REMARK INTER:                 -11.042
REMARK INTRA:                  -0.895
REMARK UNBOUND:                -1.168
REMARK SMILES C[C@H]1N[C@@H](N[C@@H](O)N2CCC[C@H]2[C@@H](N)O)S[C@@H]1[C@H]1CCN[C@H](C(C)(C)C(F)(F)F)C1
REMARK SMILES IDX 5 1 4 3 2 4 17 5 3 6 16 7 1 8 18 10 19 11 30 12 20 13 22 14
REMARK SMILES IDX 21 15 23 17 24 18 25 19 26 20 27 21 28 22 29 23 6 24 7 25
REMARK SMILES IDX 8 27 12 28 9 29 11 30 10 31 13 32 15 33 14 35
REMARK H PARENT 5 2 3 9 21 16 7 26 15 34 14 36 14 37
ROOT
ATOM      1  N   UNL     1       0.121  -9.332  11.083  1.00  0.00    -0.255 NA
ATOM      2  H   UNL     1      -0.809  -9.116  10.695  1.00  0.00     0.129 HD
ENDROOT
BRANCH   1   3
ATOM      3  C   UNL     1       0.038  -9.038  12.430  1.00  0.00     0.185 C 
ATOM      4  C   UNL     1      -0.426  -9.419  14.560  1.00  0.00     0.066 C 
ATOM      5  C   UNL     1       0.102  -8.140  14.704  1.00  0.00     0.069 C 
ATOM      6  N   UNL     1      -0.448  -9.915  13.272  1.00  0.00    -0.290 NA
ATOM      7  S   UNL     1       0.550  -7.541  13.124  1.00  0.00    -0.122 SA
ATOM      8  C   UNL     1      -0.936 -10.287  15.664  1.00  0.00     0.025 C 
ATOM      9  H   UNL     1       0.118 -10.774  13.230  1.00  0.00     0.125 HD
BRANCH   5  10
ATOM     10  C   UNL     1       0.322  -7.231  15.851  1.00  0.00     0.006 C 
ATOM     11  C   UNL     1       1.418  -6.376  15.897  1.00  0.00     0.020 C 
ATOM     12  C   UNL     1      -0.594  -7.203  16.898  1.00  0.00     0.024 C 
ATOM     13  C   UNL     1       1.578  -5.567  17.001  1.00  0.00     0.081 C 
ATOM     14  C   UNL     1      -0.355  -6.331  17.969  1.00  0.00     0.068 C 
ATOM     15  N   UNL     1       0.723  -5.538  18.033  1.00  0.00    -0.313 NA
ATOM     16  H   UNL     1       1.251  -5.802  18.877  1.00  0.00     0.122 HD
BRANCH  14  17
ATOM     17  C   UNL     1      -1.365  -6.199  19.135  1.00  0.00     0.076 C 
ATOM     18  C   UNL     1      -0.739  -5.469  20.334  1.00  0.00     0.022 C 
ATOM     19  C   UNL     1      -2.620  -5.442  18.666  1.00  0.00     0.022 C 
BRANCH  17  20
ATOM     20  C   UNL     1      -1.825  -7.678  19.650  1.00  0.00     0.395 C 
ATOM     21  F   UNL     1      -2.522  -7.583  20.781  1.00  0.00    -0.170 F 
ATOM     22  F   UNL     1      -2.591  -8.317  18.774  1.00  0.00    -0.170 F 
ATOM     23  F   UNL     1      -0.783  -8.467  19.886  1.00  0.00    -0.170 F 
ENDBRANCH  17  20
ENDBRANCH  14  17
ENDBRANCH   5  10
ENDBRANCH   1   3
BRANCH   1  24
ATOM     24  C   UNL     1       1.042  -8.750  10.199  1.00  0.00     0.261 C 
BRANCH  24  25
ATOM     25  O   UNL     1       0.698  -7.938   9.353  1.00  0.00    -0.365 OA
ATOM     26  H   UNL     1       0.077  -7.282   9.759  1.00  0.00     0.214 HD
ENDBRANCH  24  25
BRANCH  24  27
ATOM     27  N   UNL     1       2.365  -9.129  10.322  1.00  0.00    -0.259 NA
ATOM     28  C   UNL     1       3.387  -8.131  10.681  1.00  0.00     0.104 C 
ATOM     29  C   UNL     1       2.933 -10.475  10.142  1.00  0.00     0.089 C 
ATOM     30  C   UNL     1       4.675  -8.959  10.814  1.00  0.00     0.025 C 
ATOM     31  C   UNL     1       4.419 -10.220  10.023  1.00  0.00     0.017 C 
BRANCH  28  32
ATOM     32  C   UNL     1       3.527  -7.004   9.657  1.00  0.00     0.197 C 
BRANCH  32  33
ATOM     33  O   UNL     1       4.184  -7.178   8.626  1.00  0.00    -0.377 OA
ATOM     34  H   UNL     1       4.679  -6.349   8.407  1.00  0.00     0.212 HD
ENDBRANCH  32  33
BRANCH  32  35
ATOM     35  N   UNL     1       2.978  -5.842   9.973  1.00  0.00    -0.305 NA
ATOM     36  H   UNL     1       3.404  -5.486  10.840  1.00  0.00     0.121 HD
ATOM     37  H   UNL     1       3.137  -5.168   9.210  1.00  0.00     0.121 HD
ENDBRANCH  32  35
ENDBRANCH  28  32
ENDBRANCH  24  27
ENDBRANCH   1  24
TORSDOF 10
ENDMDL
