MODEL 1
REMARK VINA RESULT:    16.511      0.000      0.000
REMARK INTER + INTRA:          22.850
REMARK INTER:                  23.268
REMARK INTRA:                  -0.417
REMARK UNBOUND:                -0.417
REMARK SMILES Cc1ccc(NC(=O)c2ccc(CN3CCN(C)CC3)cc2)cc1Nc1nc(-c2cccnc2)cs1
REMARK SMILES IDX 6 1 7 2 8 3 5 5 2 6 3 7 24 8 4 9 23 10 1 11 25 12 26 14
REMARK SMILES IDX 27 15 36 16 28 17 35 18 29 19 30 20 34 21 31 22 33 23 32 24
REMARK SMILES IDX 9 25 10 26 22 27 11 28 21 29 12 30 13 31 14 32 15 33 20 34
REMARK SMILES IDX 16 35 19 36 17 37 18 38
REMARK H PARENT 6 4 25 13
ROOT
ATOM      1  N   UNL     1      30.543  27.668  45.869  1.00  0.00    -0.322 N 
ATOM      2  C   UNL     1      30.478  28.928  46.437  1.00  0.00     0.255 C 
ATOM      3  O   UNL     1      29.918  29.237  47.482  1.00  0.00    -0.269 OA
ATOM      4  H   UNL     1      31.169  27.556  45.084  1.00  0.00     0.170 HD
ENDROOT
BRANCH   1   5
ATOM      5  C   UNL     1      29.932  26.486  46.339  1.00  0.00     0.043 A 
ATOM      6  C   UNL     1      28.822  24.124  47.419  1.00  0.00    -0.027 A 
ATOM      7  C   UNL     1      30.012  24.655  47.934  1.00  0.00     0.008 A 
ATOM      8  C   UNL     1      28.201  24.765  46.332  1.00  0.00     0.045 A 
ATOM      9  C   UNL     1      30.558  25.824  47.400  1.00  0.00     0.026 A 
ATOM     10  C   UNL     1      28.762  25.944  45.805  1.00  0.00     0.052 A 
ATOM     11  C   UNL     1      28.261  22.864  48.019  1.00  0.00     0.046 C 
BRANCH   8  12
ATOM     12  N   UNL     1      27.023  24.234  45.754  1.00  0.00    -0.331 N 
ATOM     13  H   UNL     1      26.443  23.791  46.462  1.00  0.00     0.169 HD
BRANCH  12  14
ATOM     14  C   UNL     1      26.251  24.920  44.867  1.00  0.00     0.187 A 
ATOM     15  N   UNL     1      26.236  24.603  43.589  1.00  0.00    -0.220 NA
ATOM     16  S   UNL     1      25.243  26.265  45.267  1.00  0.00    -0.105 S 
ATOM     17  C   UNL     1      25.403  25.443  42.865  1.00  0.00     0.085 A 
ATOM     18  C   UNL     1      24.771  26.405  43.626  1.00  0.00     0.097 A 
BRANCH  17  19
ATOM     19  C   UNL     1      25.249  25.277  41.423  1.00  0.00     0.019 A 
ATOM     20  C   UNL     1      24.817  24.089  40.825  1.00  0.00     0.013 A 
ATOM     21  C   UNL     1      25.529  26.342  40.567  1.00  0.00     0.121 A 
ATOM     22  C   UNL     1      24.686  24.014  39.436  1.00  0.00     0.021 A 
ATOM     23  N   UNL     1      25.412  26.298  39.214  1.00  0.00    -0.264 NA
ATOM     24  C   UNL     1      24.992  25.133  38.681  1.00  0.00     0.111 A 
ENDBRANCH  17  19
ENDBRANCH  12  14
ENDBRANCH   8  12
ENDBRANCH   1   5
BRANCH   2  25
ATOM     25  C   UNL     1      31.226  29.980  45.694  1.00  0.00     0.040 A 
ATOM     26  C   UNL     1      31.947  29.609  44.555  1.00  0.00     0.014 A 
ATOM     27  C   UNL     1      31.231  31.315  46.117  1.00  0.00     0.014 A 
ATOM     28  C   UNL     1      32.643  30.574  43.824  1.00  0.00     0.006 A 
ATOM     29  C   UNL     1      31.932  32.278  45.385  1.00  0.00     0.006 A 
ATOM     30  C   UNL     1      32.634  31.919  44.225  1.00  0.00    -0.034 A 
BRANCH  30  31
ATOM     31  C   UNL     1      33.407  32.962  43.437  1.00  0.00     0.120 C 
BRANCH  31  32
ATOM     32  N   UNL     1      34.815  33.067  43.862  1.00  0.00    -0.297 NA
ATOM     33  C   UNL     1      35.673  33.427  42.718  1.00  0.00     0.100 C 
ATOM     34  C   UNL     1      35.301  31.800  44.460  1.00  0.00     0.100 C 
ATOM     35  C   UNL     1      35.836  32.331  41.630  1.00  0.00     0.099 C 
ATOM     36  C   UNL     1      36.083  30.845  43.515  1.00  0.00     0.099 C 
ATOM     37  N   UNL     1      35.638  30.954  42.121  1.00  0.00    -0.304 NA
ATOM     38  C   UNL     1      36.304  29.982  41.260  1.00  0.00     0.105 C 
ENDBRANCH  31  32
ENDBRANCH  30  31
ENDBRANCH   2  25
TORSDOF 7
ENDMDL
MODEL 2
REMARK VINA RESULT:    17.019      2.207      9.876
REMARK INTER + INTRA:          23.567
REMARK INTER:                  24.636
REMARK INTRA:                  -1.069
REMARK UNBOUND:                -0.417
REMARK SMILES Cc1ccc(NC(=O)c2ccc(CN3CCN(C)CC3)cc2)cc1Nc1nc(-c2cccnc2)cs1
REMARK SMILES IDX 6 1 7 2 8 3 5 5 2 6 3 7 24 8 4 9 23 10 1 11 25 12 26 14
REMARK SMILES IDX 27 15 36 16 28 17 35 18 29 19 30 20 34 21 31 22 33 23 32 24
REMARK SMILES IDX 9 25 10 26 22 27 11 28 21 29 12 30 13 31 14 32 15 33 20 34
REMARK SMILES IDX 16 35 19 36 17 37 18 38
REMARK H PARENT 6 4 25 13
ROOT
ATOM      1  N   UNL     1      27.454  25.267  44.575  1.00  0.00    -0.322 N 
ATOM      2  C   UNL     1      26.144  25.709  44.603  1.00  0.00     0.255 C 
ATOM      3  O   UNL     1      25.560  26.223  45.549  1.00  0.00    -0.269 OA
ATOM      4  H   UNL     1      27.825  25.003  43.672  1.00  0.00     0.170 HD
ENDROOT
BRANCH   1   5
ATOM      5  C   UNL     1      28.377  25.260  45.642  1.00  0.00     0.043 A 
ATOM      6  C   UNL     1      30.229  25.067  47.766  1.00  0.00    -0.027 A 
ATOM      7  C   UNL     1      29.592  23.923  47.267  1.00  0.00     0.008 A 
ATOM      8  C   UNL     1      29.911  26.322  47.216  1.00  0.00     0.045 A 
ATOM      9  C   UNL     1      28.678  24.020  46.215  1.00  0.00     0.026 A 
ATOM     10  C   UNL     1      28.989  26.404  46.155  1.00  0.00     0.052 A 
ATOM     11  C   UNL     1      31.209  24.926  48.898  1.00  0.00     0.046 C 
BRANCH   8  12
ATOM     12  N   UNL     1      30.499  27.506  47.723  1.00  0.00    -0.331 N 
ATOM     13  H   UNL     1      31.358  27.294  48.225  1.00  0.00     0.169 HD
BRANCH  12  14
ATOM     14  C   UNL     1      30.644  28.642  46.988  1.00  0.00     0.187 A 
ATOM     15  N   UNL     1      31.724  28.853  46.266  1.00  0.00    -0.220 NA
ATOM     16  S   UNL     1      29.493  29.929  46.919  1.00  0.00    -0.105 S 
ATOM     17  C   UNL     1      31.674  30.080  45.619  1.00  0.00     0.085 A 
ATOM     18  C   UNL     1      30.519  30.796  45.857  1.00  0.00     0.097 A 
BRANCH  17  19
ATOM     19  C   UNL     1      32.779  30.522  44.775  1.00  0.00     0.019 A 
ATOM     20  C   UNL     1      33.347  31.798  44.853  1.00  0.00     0.013 A 
ATOM     21  C   UNL     1      33.331  29.650  43.837  1.00  0.00     0.121 A 
ATOM     22  C   UNL     1      34.411  32.142  44.016  1.00  0.00     0.021 A 
ATOM     23  N   UNL     1      34.364  29.956  43.010  1.00  0.00    -0.264 NA
ATOM     24  C   UNL     1      34.880  31.196  43.120  1.00  0.00     0.111 A 
ENDBRANCH  17  19
ENDBRANCH  12  14
ENDBRANCH   8  12
ENDBRANCH   1   5
BRANCH   2  25
ATOM     25  C   UNL     1      25.418  25.572  43.309  1.00  0.00     0.040 A 
ATOM     26  C   UNL     1      26.056  24.920  42.250  1.00  0.00     0.014 A 
ATOM     27  C   UNL     1      24.130  26.093  43.132  1.00  0.00     0.014 A 
ATOM     28  C   UNL     1      25.397  24.758  41.030  1.00  0.00     0.006 A 
ATOM     29  C   UNL     1      23.474  25.933  41.907  1.00  0.00     0.006 A 
ATOM     30  C   UNL     1      24.096  25.253  40.849  1.00  0.00    -0.034 A 
BRANCH  30  31
ATOM     31  C   UNL     1      23.389  25.091  39.516  1.00  0.00     0.120 C 
BRANCH  31  32
ATOM     32  N   UNL     1      24.315  25.155  38.370  1.00  0.00    -0.297 NA
ATOM     33  C   UNL     1      24.393  26.531  37.847  1.00  0.00     0.100 C 
ATOM     34  C   UNL     1      23.899  24.239  37.280  1.00  0.00     0.100 C 
ATOM     35  C   UNL     1      23.111  27.056  37.144  1.00  0.00     0.099 C 
ATOM     36  C   UNL     1      23.073  24.869  36.124  1.00  0.00     0.099 C 
ATOM     37  N   UNL     1      22.252  25.998  36.578  1.00  0.00    -0.304 NA
ATOM     38  C   UNL     1      21.404  26.517  35.511  1.00  0.00     0.105 C 
ENDBRANCH  31  32
ENDBRANCH  30  31
ENDBRANCH   2  25
TORSDOF 7
ENDMDL
MODEL 3
REMARK VINA RESULT:    17.176      5.626      7.506
REMARK INTER + INTRA:          23.787
REMARK INTER:                  24.311
REMARK INTRA:                  -0.523
REMARK UNBOUND:                -0.417
REMARK SMILES Cc1ccc(NC(=O)c2ccc(CN3CCN(C)CC3)cc2)cc1Nc1nc(-c2cccnc2)cs1
REMARK SMILES IDX 6 1 7 2 8 3 5 5 2 6 3 7 24 8 4 9 23 10 1 11 25 12 26 14
REMARK SMILES IDX 27 15 36 16 28 17 35 18 29 19 30 20 34 21 31 22 33 23 32 24
REMARK SMILES IDX 9 25 10 26 22 27 11 28 21 29 12 30 13 31 14 32 15 33 20 34
REMARK SMILES IDX 16 35 19 36 17 37 18 38
REMARK H PARENT 6 4 25 13
ROOT
ATOM      1  N   UNL     1      26.731  25.542  45.490  1.00  0.00    -0.322 N 
ATOM      2  C   UNL     1      27.574  24.475  45.234  1.00  0.00     0.255 C 
ATOM      3  O   UNL     1      27.550  23.736  44.257  1.00  0.00    -0.269 OA
ATOM      4  H   UNL     1      26.979  26.139  46.267  1.00  0.00     0.170 HD
ENDROOT
BRANCH   1   5
ATOM      5  C   UNL     1      25.631  25.968  44.716  1.00  0.00     0.043 A 
ATOM      6  C   UNL     1      23.331  26.821  43.317  1.00  0.00    -0.027 A 
ATOM      7  C   UNL     1      23.238  26.383  44.644  1.00  0.00     0.008 A 
ATOM      8  C   UNL     1      24.583  26.801  42.675  1.00  0.00     0.045 A 
ATOM      9  C   UNL     1      24.377  25.963  45.335  1.00  0.00     0.026 A 
ATOM     10  C   UNL     1      25.722  26.377  43.385  1.00  0.00     0.052 A 
ATOM     11  C   UNL     1      22.085  27.269  42.603  1.00  0.00     0.046 C 
BRANCH   8  12
ATOM     12  N   UNL     1      24.710  27.192  41.321  1.00  0.00    -0.331 N 
ATOM     13  H   UNL     1      25.433  27.899  41.217  1.00  0.00     0.169 HD
BRANCH  12  14
ATOM     14  C   UNL     1      24.758  26.306  40.289  1.00  0.00     0.187 A 
ATOM     15  N   UNL     1      23.891  26.365  39.299  1.00  0.00    -0.220 NA
ATOM     16  S   UNL     1      25.897  25.015  40.145  1.00  0.00    -0.105 S 
ATOM     17  C   UNL     1      24.107  25.357  38.371  1.00  0.00     0.085 A 
ATOM     18  C   UNL     1      25.171  24.531  38.672  1.00  0.00     0.097 A 
BRANCH  17  19
ATOM     19  C   UNL     1      23.247  25.228  37.199  1.00  0.00     0.019 A 
ATOM     20  C   UNL     1      23.154  24.060  36.434  1.00  0.00     0.013 A 
ATOM     21  C   UNL     1      22.455  26.303  36.795  1.00  0.00     0.121 A 
ATOM     22  C   UNL     1      22.299  24.013  35.331  1.00  0.00     0.021 A 
ATOM     23  N   UNL     1      21.616  26.287  35.727  1.00  0.00    -0.264 NA
ATOM     24  C   UNL     1      21.558  25.141  35.021  1.00  0.00     0.111 A 
ENDBRANCH  17  19
ENDBRANCH  12  14
ENDBRANCH   8  12
ENDBRANCH   1   5
BRANCH   2  25
ATOM     25  C   UNL     1      28.642  24.273  46.252  1.00  0.00     0.040 A 
ATOM     26  C   UNL     1      29.235  23.011  46.358  1.00  0.00     0.014 A 
ATOM     27  C   UNL     1      29.047  25.306  47.107  1.00  0.00     0.014 A 
ATOM     28  C   UNL     1      30.252  22.793  47.288  1.00  0.00     0.006 A 
ATOM     29  C   UNL     1      30.063  25.083  48.041  1.00  0.00     0.006 A 
ATOM     30  C   UNL     1      30.684  23.828  48.132  1.00  0.00    -0.034 A 
BRANCH  30  31
ATOM     31  C   UNL     1      31.778  23.582  49.155  1.00  0.00     0.120 C 
BRANCH  31  32
ATOM     32  N   UNL     1      33.055  24.222  48.788  1.00  0.00    -0.297 NA
ATOM     33  C   UNL     1      34.170  23.619  49.541  1.00  0.00     0.100 C 
ATOM     34  C   UNL     1      33.026  25.683  49.042  1.00  0.00     0.100 C 
ATOM     35  C   UNL     1      34.188  23.913  51.066  1.00  0.00     0.099 C 
ATOM     36  C   UNL     1      33.642  26.163  50.386  1.00  0.00     0.099 C 
ATOM     37  N   UNL     1      33.504  25.163  51.451  1.00  0.00    -0.304 NA
ATOM     38  C   UNL     1      33.991  25.662  52.732  1.00  0.00     0.105 C 
ENDBRANCH  31  32
ENDBRANCH  30  31
ENDBRANCH   2  25
TORSDOF 7
ENDMDL
MODEL 4
REMARK VINA RESULT:    18.368      6.086      9.234
REMARK INTER + INTRA:          25.467
REMARK INTER:                  23.954
REMARK INTRA:                   1.513
REMARK UNBOUND:                -0.417
REMARK SMILES Cc1ccc(NC(=O)c2ccc(CN3CCN(C)CC3)cc2)cc1Nc1nc(-c2cccnc2)cs1
REMARK SMILES IDX 6 1 7 2 8 3 5 5 2 6 3 7 24 8 4 9 23 10 1 11 25 12 26 14
REMARK SMILES IDX 27 15 36 16 28 17 35 18 29 19 30 20 34 21 31 22 33 23 32 24
REMARK SMILES IDX 9 25 10 26 22 27 11 28 21 29 12 30 13 31 14 32 15 33 20 34
REMARK SMILES IDX 16 35 19 36 17 37 18 38
REMARK H PARENT 6 4 25 13
ROOT
ATOM      1  N   UNL     1      25.993  24.744  41.597  1.00  0.00    -0.322 N 
ATOM      2  C   UNL     1      25.453  25.257  42.764  1.00  0.00     0.255 C 
ATOM      3  O   UNL     1      24.346  25.763  42.903  1.00  0.00    -0.269 OA
ATOM      4  H   UNL     1      26.858  24.230  41.687  1.00  0.00     0.170 HD
ENDROOT
BRANCH   1   5
ATOM      5  C   UNL     1      25.411  24.747  40.312  1.00  0.00     0.043 A 
ATOM      6  C   UNL     1      24.171  24.590  37.780  1.00  0.00    -0.027 A 
ATOM      7  C   UNL     1      24.201  23.478  38.630  1.00  0.00     0.008 A 
ATOM      8  C   UNL     1      24.796  25.782  38.190  1.00  0.00     0.045 A 
ATOM      9  C   UNL     1      24.813  23.557  39.883  1.00  0.00     0.026 A 
ATOM     10  C   UNL     1      25.407  25.848  39.456  1.00  0.00     0.052 A 
ATOM     11  C   UNL     1      23.502  24.470  36.438  1.00  0.00     0.046 C 
BRANCH   8  12
ATOM     12  N   UNL     1      24.826  26.914  37.340  1.00  0.00    -0.331 N 
ATOM     13  H   UNL     1      25.490  26.776  36.582  1.00  0.00     0.169 HD
BRANCH  12  14
ATOM     14  C   UNL     1      23.705  27.538  36.886  1.00  0.00     0.187 A 
ATOM     15  N   UNL     1      23.667  28.845  36.735  1.00  0.00    -0.220 NA
ATOM     16  S   UNL     1      22.225  26.743  36.483  1.00  0.00    -0.105 S 
ATOM     17  C   UNL     1      22.425  29.270  36.287  1.00  0.00     0.085 A 
ATOM     18  C   UNL     1      21.517  28.251  36.086  1.00  0.00     0.097 A 
BRANCH  17  19
ATOM     19  C   UNL     1      22.158  30.689  36.066  1.00  0.00     0.019 A 
ATOM     20  C   UNL     1      20.908  31.281  36.275  1.00  0.00     0.013 A 
ATOM     21  C   UNL     1      23.184  31.530  35.635  1.00  0.00     0.121 A 
ATOM     22  C   UNL     1      20.737  32.649  36.051  1.00  0.00     0.021 A 
ATOM     23  N   UNL     1      23.047  32.863  35.408  1.00  0.00    -0.264 NA
ATOM     24  C   UNL     1      21.825  33.390  35.622  1.00  0.00     0.111 A 
ENDBRANCH  17  19
ENDBRANCH  12  14
ENDBRANCH   8  12
ENDBRANCH   1   5
BRANCH   2  25
ATOM     25  C   UNL     1      26.324  25.112  43.964  1.00  0.00     0.040 A 
ATOM     26  C   UNL     1      27.231  24.049  44.007  1.00  0.00     0.014 A 
ATOM     27  C   UNL     1      26.240  26.000  45.043  1.00  0.00     0.014 A 
ATOM     28  C   UNL     1      28.075  23.895  45.108  1.00  0.00     0.006 A 
ATOM     29  C   UNL     1      27.084  25.841  46.146  1.00  0.00     0.006 A 
ATOM     30  C   UNL     1      28.018  24.795  46.184  1.00  0.00    -0.034 A 
BRANCH  30  31
ATOM     31  C   UNL     1      28.925  24.614  47.388  1.00  0.00     0.120 C 
BRANCH  31  32
ATOM     32  N   UNL     1      29.733  23.382  47.311  1.00  0.00    -0.297 NA
ATOM     33  C   UNL     1      30.058  22.894  48.664  1.00  0.00     0.100 C 
ATOM     34  C   UNL     1      30.989  23.599  46.553  1.00  0.00     0.100 C 
ATOM     35  C   UNL     1      31.047  23.775  49.476  1.00  0.00     0.099 C 
ATOM     36  C   UNL     1      32.262  23.894  47.394  1.00  0.00     0.099 C 
ATOM     37  N   UNL     1      31.952  24.594  48.646  1.00  0.00    -0.304 NA
ATOM     38  C   UNL     1      33.160  24.958  49.379  1.00  0.00     0.105 C 
ENDBRANCH  31  32
ENDBRANCH  30  31
ENDBRANCH   2  25
TORSDOF 7
ENDMDL
MODEL 5
REMARK VINA RESULT:    19.299      5.946     11.908
REMARK INTER + INTRA:          26.779
REMARK INTER:                  26.306
REMARK INTRA:                   0.474
REMARK UNBOUND:                -0.417
REMARK SMILES Cc1ccc(NC(=O)c2ccc(CN3CCN(C)CC3)cc2)cc1Nc1nc(-c2cccnc2)cs1
REMARK SMILES IDX 6 1 7 2 8 3 5 5 2 6 3 7 24 8 4 9 23 10 1 11 25 12 26 14
REMARK SMILES IDX 27 15 36 16 28 17 35 18 29 19 30 20 34 21 31 22 33 23 32 24
REMARK SMILES IDX 9 25 10 26 22 27 11 28 21 29 12 30 13 31 14 32 15 33 20 34
REMARK SMILES IDX 16 35 19 36 17 37 18 38
REMARK H PARENT 6 4 25 13
ROOT
ATOM      1  N   UNL     1      25.130  24.850  40.910  1.00  0.00    -0.322 N 
ATOM      2  C   UNL     1      25.096  25.383  39.634  1.00  0.00     0.255 C 
ATOM      3  O   UNL     1      25.218  26.562  39.324  1.00  0.00    -0.269 OA
ATOM      4  H   UNL     1      25.162  23.842  40.980  1.00  0.00     0.170 HD
ENDROOT
BRANCH   1   5
ATOM      5  C   UNL     1      25.254  25.553  42.127  1.00  0.00     0.043 A 
ATOM      6  C   UNL     1      25.407  27.096  44.488  1.00  0.00    -0.027 A 
ATOM      7  C   UNL     1      24.947  27.663  43.293  1.00  0.00     0.008 A 
ATOM      8  C   UNL     1      25.824  25.752  44.491  1.00  0.00     0.045 A 
ATOM      9  C   UNL     1      24.869  26.898  42.126  1.00  0.00     0.026 A 
ATOM     10  C   UNL     1      25.739  24.993  43.309  1.00  0.00     0.052 A 
ATOM     11  C   UNL     1      25.476  27.947  45.726  1.00  0.00     0.046 C 
BRANCH   8  12
ATOM     12  N   UNL     1      26.339  25.156  45.668  1.00  0.00    -0.331 N 
ATOM     13  H   UNL     1      25.600  24.687  46.186  1.00  0.00     0.169 HD
BRANCH  12  14
ATOM     14  C   UNL     1      27.482  24.418  45.693  1.00  0.00     0.187 A 
ATOM     15  N   UNL     1      28.443  24.680  46.554  1.00  0.00    -0.220 NA
ATOM     16  S   UNL     1      27.834  23.103  44.629  1.00  0.00    -0.105 S 
ATOM     17  C   UNL     1      29.523  23.824  46.388  1.00  0.00     0.085 A 
ATOM     18  C   UNL     1      29.356  22.891  45.385  1.00  0.00     0.097 A 
BRANCH  17  19
ATOM     19  C   UNL     1      30.708  23.949  47.232  1.00  0.00     0.019 A 
ATOM     20  C   UNL     1      30.659  24.310  48.582  1.00  0.00     0.013 A 
ATOM     21  C   UNL     1      31.971  23.693  46.699  1.00  0.00     0.121 A 
ATOM     22  C   UNL     1      31.839  24.398  49.325  1.00  0.00     0.021 A 
ATOM     23  N   UNL     1      33.135  23.771  47.396  1.00  0.00    -0.264 NA
ATOM     24  C   UNL     1      33.039  24.121  48.694  1.00  0.00     0.111 A 
ENDBRANCH  17  19
ENDBRANCH  12  14
ENDBRANCH   8  12
ENDBRANCH   1   5
BRANCH   2  25
ATOM     25  C   UNL     1      24.945  24.375  38.547  1.00  0.00     0.040 A 
ATOM     26  C   UNL     1      25.661  23.178  38.641  1.00  0.00     0.014 A 
ATOM     27  C   UNL     1      24.120  24.608  37.439  1.00  0.00     0.014 A 
ATOM     28  C   UNL     1      25.527  22.204  37.650  1.00  0.00     0.006 A 
ATOM     29  C   UNL     1      23.991  23.633  36.446  1.00  0.00     0.006 A 
ATOM     30  C   UNL     1      24.683  22.416  36.548  1.00  0.00    -0.034 A 
BRANCH  30  31
ATOM     31  C   UNL     1      24.554  21.362  35.463  1.00  0.00     0.120 C 
BRANCH  31  32
ATOM     32  N   UNL     1      23.155  20.963  35.223  1.00  0.00    -0.297 NA
ATOM     33  C   UNL     1      22.411  20.900  36.495  1.00  0.00     0.100 C 
ATOM     34  C   UNL     1      23.072  19.648  34.542  1.00  0.00     0.100 C 
ATOM     35  C   UNL     1      22.823  19.753  37.458  1.00  0.00     0.099 C 
ATOM     36  C   UNL     1      22.841  18.410  35.453  1.00  0.00     0.099 C 
ATOM     37  N   UNL     1      23.426  18.585  36.788  1.00  0.00    -0.304 NA
ATOM     38  C   UNL     1      23.294  17.380  37.601  1.00  0.00     0.105 C 
ENDBRANCH  31  32
ENDBRANCH  30  31
ENDBRANCH   2  25
TORSDOF 7
ENDMDL
