MODEL 1
REMARK VINA RESULT:   -12.840      0.000      0.000
REMARK INTER + INTRA:         -18.400
REMARK INTER:                 -18.095
REMARK INTRA:                  -0.305
REMARK UNBOUND:                -0.305
REMARK SMILES Cc1ccc(NC(=O)c2ccc(CN3CCN(C)CC3)cc2)cc1Nc1nc(-c2cccnc2)cs1
REMARK SMILES IDX 6 1 7 2 8 3 5 5 2 6 3 7 24 8 4 9 23 10 1 11 25 12 26 14
REMARK SMILES IDX 27 15 36 16 28 17 35 18 29 19 30 20 34 21 31 22 33 23 32 24
REMARK SMILES IDX 9 25 10 26 22 27 11 28 21 29 12 30 13 31 14 32 15 33 20 34
REMARK SMILES IDX 16 35 19 36 17 37 18 38
REMARK H PARENT 6 4 25 13
ROOT
ATOM      1  N   UNL     1      24.259  26.100  40.061  1.00  0.00    -0.322 N 
ATOM      2  C   UNL     1      24.894  25.299  39.129  1.00  0.00     0.255 C 
ATOM      3  O   UNL     1      25.651  24.363  39.356  1.00  0.00    -0.269 OA
ATOM      4  H   UNL     1      23.553  26.732  39.709  1.00  0.00     0.170 HD
ENDROOT
BRANCH   1   5
ATOM      5  C   UNL     1      24.391  26.049  41.464  1.00  0.00     0.043 A 
ATOM      6  C   UNL     1      24.490  26.017  44.287  1.00  0.00    -0.027 A 
ATOM      7  C   UNL     1      23.465  26.696  43.616  1.00  0.00     0.008 A 
ATOM      8  C   UNL     1      25.491  25.374  43.536  1.00  0.00     0.045 A 
ATOM      9  C   UNL     1      23.417  26.709  42.220  1.00  0.00     0.026 A 
ATOM     10  C   UNL     1      25.428  25.394  42.130  1.00  0.00     0.052 A 
ATOM     11  C   UNL     1      24.511  26.021  45.791  1.00  0.00     0.046 C 
BRANCH   8  12
ATOM     12  N   UNL     1      26.568  24.716  44.177  1.00  0.00    -0.331 N 
ATOM     13  H   UNL     1      26.755  23.819  43.735  1.00  0.00     0.169 HD
BRANCH  12  14
ATOM     14  C   UNL     1      27.732  25.337  44.508  1.00  0.00     0.187 A 
ATOM     15  N   UNL     1      28.613  24.757  45.297  1.00  0.00    -0.220 NA
ATOM     16  S   UNL     1      28.193  26.918  43.987  1.00  0.00    -0.105 S 
ATOM     17  C   UNL     1      29.712  25.574  45.522  1.00  0.00     0.085 A 
ATOM     18  C   UNL     1      29.653  26.791  44.874  1.00  0.00     0.097 A 
BRANCH  17  19
ATOM     19  C   UNL     1      30.804  25.132  46.383  1.00  0.00     0.019 A 
ATOM     20  C   UNL     1      31.915  25.925  46.689  1.00  0.00     0.013 A 
ATOM     21  C   UNL     1      30.768  23.861  46.956  1.00  0.00     0.121 A 
ATOM     22  C   UNL     1      32.916  25.432  47.530  1.00  0.00     0.021 A 
ATOM     23  N   UNL     1      31.725  23.355  47.777  1.00  0.00    -0.264 NA
ATOM     24  C   UNL     1      32.776  24.155  48.044  1.00  0.00     0.111 A 
ENDBRANCH  17  19
ENDBRANCH  12  14
ENDBRANCH   8  12
ENDBRANCH   1   5
BRANCH   2  25
ATOM     25  C   UNL     1      24.553  25.609  37.712  1.00  0.00     0.040 A 
ATOM     26  C   UNL     1      23.399  26.353  37.450  1.00  0.00     0.014 A 
ATOM     27  C   UNL     1      25.350  25.163  36.650  1.00  0.00     0.014 A 
ATOM     28  C   UNL     1      23.061  26.678  36.135  1.00  0.00     0.006 A 
ATOM     29  C   UNL     1      25.007  25.486  35.334  1.00  0.00     0.006 A 
ATOM     30  C   UNL     1      23.866  26.258  35.065  1.00  0.00    -0.034 A 
BRANCH  30  31
ATOM     31  C   UNL     1      23.486  26.598  33.635  1.00  0.00     0.120 C 
BRANCH  31  32
ATOM     32  N   UNL     1      23.788  27.998  33.284  1.00  0.00    -0.297 NA
ATOM     33  C   UNL     1      22.768  28.902  33.845  1.00  0.00     0.100 C 
ATOM     34  C   UNL     1      23.858  28.189  31.815  1.00  0.00     0.100 C 
ATOM     35  C   UNL     1      21.355  28.799  33.208  1.00  0.00     0.099 C 
ATOM     36  C   UNL     1      22.572  28.723  31.125  1.00  0.00     0.099 C 
ATOM     37  N   UNL     1      21.350  28.298  31.820  1.00  0.00    -0.304 NA
ATOM     38  C   UNL     1      20.147  28.716  31.109  1.00  0.00     0.105 C 
ENDBRANCH  31  32
ENDBRANCH  30  31
ENDBRANCH   2  25
TORSDOF 7
ENDMDL
MODEL 2
REMARK VINA RESULT:   -12.121      0.797      1.314
REMARK INTER + INTRA:         -17.386
REMARK INTER:                 -17.952
REMARK INTRA:                   0.566
REMARK UNBOUND:                -0.305
REMARK SMILES Cc1ccc(NC(=O)c2ccc(CN3CCN(C)CC3)cc2)cc1Nc1nc(-c2cccnc2)cs1
REMARK SMILES IDX 6 1 7 2 8 3 5 5 2 6 3 7 24 8 4 9 23 10 1 11 25 12 26 14
REMARK SMILES IDX 27 15 36 16 28 17 35 18 29 19 30 20 34 21 31 22 33 23 32 24
REMARK SMILES IDX 9 25 10 26 22 27 11 28 21 29 12 30 13 31 14 32 15 33 20 34
REMARK SMILES IDX 16 35 19 36 17 37 18 38
REMARK H PARENT 6 4 25 13
ROOT
ATOM      1  N   UNL     1      24.509  26.095  39.994  1.00  0.00    -0.322 N 
ATOM      2  C   UNL     1      25.043  25.183  39.102  1.00  0.00     0.255 C 
ATOM      3  O   UNL     1      25.615  24.135  39.375  1.00  0.00    -0.269 OA
ATOM      4  H   UNL     1      23.941  26.834  39.602  1.00  0.00     0.170 HD
ENDROOT
BRANCH   1   5
ATOM      5  C   UNL     1      24.559  26.043  41.403  1.00  0.00     0.043 A 
ATOM      6  C   UNL     1      24.489  26.003  44.226  1.00  0.00    -0.027 A 
ATOM      7  C   UNL     1      23.479  26.641  43.496  1.00  0.00     0.008 A 
ATOM      8  C   UNL     1      25.561  25.408  43.536  1.00  0.00     0.045 A 
ATOM      9  C   UNL     1      23.513  26.658  42.100  1.00  0.00     0.026 A 
ATOM     10  C   UNL     1      25.582  25.432  42.129  1.00  0.00     0.052 A 
ATOM     11  C   UNL     1      24.420  26.002  45.729  1.00  0.00     0.046 C 
BRANCH   8  12
ATOM     12  N   UNL     1      26.624  24.793  44.239  1.00  0.00    -0.331 N 
ATOM     13  H   UNL     1      26.812  23.865  43.869  1.00  0.00     0.169 HD
BRANCH  12  14
ATOM     14  C   UNL     1      27.789  25.431  44.539  1.00  0.00     0.187 A 
ATOM     15  N   UNL     1      28.684  24.878  45.330  1.00  0.00    -0.220 NA
ATOM     16  S   UNL     1      28.231  27.001  43.970  1.00  0.00    -0.105 S 
ATOM     17  C   UNL     1      29.780  25.709  45.519  1.00  0.00     0.085 A 
ATOM     18  C   UNL     1      29.703  26.908  44.840  1.00  0.00     0.097 A 
BRANCH  17  19
ATOM     19  C   UNL     1      30.887  25.297  46.376  1.00  0.00     0.019 A 
ATOM     20  C   UNL     1      32.000  26.102  46.639  1.00  0.00     0.013 A 
ATOM     21  C   UNL     1      30.863  24.045  46.990  1.00  0.00     0.121 A 
ATOM     22  C   UNL     1      33.015  25.638  47.480  1.00  0.00     0.021 A 
ATOM     23  N   UNL     1      31.834  23.567  47.811  1.00  0.00    -0.264 NA
ATOM     24  C   UNL     1      32.887  24.377  48.036  1.00  0.00     0.111 A 
ENDBRANCH  17  19
ENDBRANCH  12  14
ENDBRANCH   8  12
ENDBRANCH   1   5
BRANCH   2  25
ATOM     25  C   UNL     1      24.833  25.525  37.667  1.00  0.00     0.040 A 
ATOM     26  C   UNL     1      23.861  26.476  37.342  1.00  0.00     0.014 A 
ATOM     27  C   UNL     1      25.572  24.909  36.650  1.00  0.00     0.014 A 
ATOM     28  C   UNL     1      23.653  26.835  36.010  1.00  0.00     0.006 A 
ATOM     29  C   UNL     1      25.358  25.267  35.315  1.00  0.00     0.006 A 
ATOM     30  C   UNL     1      24.405  26.242  34.983  1.00  0.00    -0.034 A 
BRANCH  30  31
ATOM     31  C   UNL     1      24.163  26.621  33.533  1.00  0.00     0.120 C 
BRANCH  31  32
ATOM     32  N   UNL     1      22.790  27.104  33.294  1.00  0.00    -0.297 NA
ATOM     33  C   UNL     1      22.652  27.598  31.912  1.00  0.00     0.100 C 
ATOM     34  C   UNL     1      22.418  28.183  34.240  1.00  0.00     0.100 C 
ATOM     35  C   UNL     1      23.422  28.907  31.586  1.00  0.00     0.099 C 
ATOM     36  C   UNL     1      22.582  29.640  33.727  1.00  0.00     0.099 C 
ATOM     37  N   UNL     1      23.677  29.768  32.757  1.00  0.00    -0.304 NA
ATOM     38  C   UNL     1      23.891  31.156  32.358  1.00  0.00     0.105 C 
ENDBRANCH  31  32
ENDBRANCH  30  31
ENDBRANCH   2  25
TORSDOF 7
ENDMDL
MODEL 3
REMARK VINA RESULT:   -11.946      2.852     12.759
REMARK INTER + INTRA:         -17.140
REMARK INTER:                 -16.483
REMARK INTRA:                  -0.657
REMARK UNBOUND:                -0.305
REMARK SMILES Cc1ccc(NC(=O)c2ccc(CN3CCN(C)CC3)cc2)cc1Nc1nc(-c2cccnc2)cs1
REMARK SMILES IDX 6 1 7 2 8 3 5 5 2 6 3 7 24 8 4 9 23 10 1 11 25 12 26 14
REMARK SMILES IDX 27 15 36 16 28 17 35 18 29 19 30 20 34 21 31 22 33 23 32 24
REMARK SMILES IDX 9 25 10 26 22 27 11 28 21 29 12 30 13 31 14 32 15 33 20 34
REMARK SMILES IDX 16 35 19 36 17 37 18 38
REMARK H PARENT 6 4 25 13
ROOT
ATOM      1  N   UNL     1      28.091  26.331  44.723  1.00  0.00    -0.322 N 
ATOM      2  C   UNL     1      28.711  25.220  45.268  1.00  0.00     0.255 C 
ATOM      3  O   UNL     1      28.310  24.064  45.237  1.00  0.00    -0.269 OA
ATOM      4  H   UNL     1      28.627  27.188  44.709  1.00  0.00     0.170 HD
ENDROOT
BRANCH   1   5
ATOM      5  C   UNL     1      26.842  26.378  44.069  1.00  0.00     0.043 A 
ATOM      6  C   UNL     1      24.262  26.471  42.922  1.00  0.00    -0.027 A 
ATOM      7  C   UNL     1      24.427  26.218  44.290  1.00  0.00     0.008 A 
ATOM      8  C   UNL     1      25.402  26.647  42.117  1.00  0.00     0.045 A 
ATOM      9  C   UNL     1      25.704  26.174  44.856  1.00  0.00     0.026 A 
ATOM     10  C   UNL     1      26.682  26.601  42.701  1.00  0.00     0.052 A 
ATOM     11  C   UNL     1      22.874  26.513  42.346  1.00  0.00     0.046 C 
BRANCH   8  12
ATOM     12  N   UNL     1      25.279  26.858  40.722  1.00  0.00    -0.331 N 
ATOM     13  H   UNL     1      25.875  27.625  40.421  1.00  0.00     0.169 HD
BRANCH  12  14
ATOM     14  C   UNL     1      25.301  25.850  39.809  1.00  0.00     0.187 A 
ATOM     15  N   UNL     1      25.329  26.101  38.517  1.00  0.00    -0.220 NA
ATOM     16  S   UNL     1      25.271  24.166  40.194  1.00  0.00    -0.105 S 
ATOM     17  C   UNL     1      25.323  24.932  37.769  1.00  0.00     0.085 A 
ATOM     18  C   UNL     1      25.302  23.778  38.526  1.00  0.00     0.097 A 
BRANCH  17  19
ATOM     19  C   UNL     1      25.336  24.981  36.311  1.00  0.00     0.019 A 
ATOM     20  C   UNL     1      26.166  24.181  35.519  1.00  0.00     0.013 A 
ATOM     21  C   UNL     1      24.481  25.853  35.636  1.00  0.00     0.121 A 
ATOM     22  C   UNL     1      26.111  24.280  34.126  1.00  0.00     0.021 A 
ATOM     23  N   UNL     1      24.406  25.972  34.285  1.00  0.00    -0.264 NA
ATOM     24  C   UNL     1      25.223  25.181  33.563  1.00  0.00     0.111 A 
ENDBRANCH  17  19
ENDBRANCH  12  14
ENDBRANCH   8  12
ENDBRANCH   1   5
BRANCH   2  25
ATOM     25  C   UNL     1      30.028  25.499  45.906  1.00  0.00     0.040 A 
ATOM     26  C   UNL     1      30.507  26.812  45.905  1.00  0.00     0.014 A 
ATOM     27  C   UNL     1      30.792  24.479  46.487  1.00  0.00     0.014 A 
ATOM     28  C   UNL     1      31.728  27.111  46.511  1.00  0.00     0.006 A 
ATOM     29  C   UNL     1      32.017  24.781  47.089  1.00  0.00     0.006 A 
ATOM     30  C   UNL     1      32.491  26.101  47.119  1.00  0.00    -0.034 A 
BRANCH  30  31
ATOM     31  C   UNL     1      33.827  26.427  47.761  1.00  0.00     0.120 C 
BRANCH  31  32
ATOM     32  N   UNL     1      34.917  26.550  46.775  1.00  0.00    -0.297 NA
ATOM     33  C   UNL     1      36.228  26.393  47.433  1.00  0.00     0.100 C 
ATOM     34  C   UNL     1      34.874  27.856  46.074  1.00  0.00     0.100 C 
ATOM     35  C   UNL     1      36.642  27.546  48.388  1.00  0.00     0.099 C 
ATOM     36  C   UNL     1      35.802  28.970  46.630  1.00  0.00     0.099 C 
ATOM     37  N   UNL     1      36.016  28.846  48.078  1.00  0.00    -0.304 NA
ATOM     38  C   UNL     1      36.803  29.954  48.608  1.00  0.00     0.105 C 
ENDBRANCH  31  32
ENDBRANCH  30  31
ENDBRANCH   2  25
TORSDOF 7
ENDMDL
MODEL 4
REMARK VINA RESULT:   -10.580      5.000     10.295
REMARK INTER + INTRA:         -15.215
REMARK INTER:                 -15.207
REMARK INTRA:                  -0.008
REMARK UNBOUND:                -0.305
REMARK SMILES Cc1ccc(NC(=O)c2ccc(CN3CCN(C)CC3)cc2)cc1Nc1nc(-c2cccnc2)cs1
REMARK SMILES IDX 6 1 7 2 8 3 5 5 2 6 3 7 24 8 4 9 23 10 1 11 25 12 26 14
REMARK SMILES IDX 27 15 36 16 28 17 35 18 29 19 30 20 34 21 31 22 33 23 32 24
REMARK SMILES IDX 9 25 10 26 22 27 11 28 21 29 12 30 13 31 14 32 15 33 20 34
REMARK SMILES IDX 16 35 19 36 17 37 18 38
REMARK H PARENT 6 4 25 13
ROOT
ATOM      1  N   UNL     1      32.164  26.087  46.897  1.00  0.00    -0.322 N 
ATOM      2  C   UNL     1      31.286  25.094  46.498  1.00  0.00     0.255 C 
ATOM      3  O   UNL     1      31.363  23.898  46.749  1.00  0.00    -0.269 OA
ATOM      4  H   UNL     1      31.875  27.041  46.730  1.00  0.00     0.170 HD
ENDROOT
BRANCH   1   5
ATOM      5  C   UNL     1      33.361  25.926  47.625  1.00  0.00     0.043 A 
ATOM      6  C   UNL     1      35.696  25.444  49.139  1.00  0.00    -0.027 A 
ATOM      7  C   UNL     1      34.574  24.618  49.275  1.00  0.00     0.008 A 
ATOM      8  C   UNL     1      35.636  26.541  48.259  1.00  0.00     0.045 A 
ATOM      9  C   UNL     1      33.420  24.856  48.524  1.00  0.00     0.026 A 
ATOM     10  C   UNL     1      34.468  26.768  47.508  1.00  0.00     0.052 A 
ATOM     11  C   UNL     1      36.923  25.157  49.961  1.00  0.00     0.046 C 
BRANCH   8  12
ATOM     12  N   UNL     1      36.733  27.425  48.128  1.00  0.00    -0.331 N 
ATOM     13  H   UNL     1      37.502  26.975  47.637  1.00  0.00     0.169 HD
BRANCH  12  14
ATOM     14  C   UNL     1      36.606  28.720  47.729  1.00  0.00     0.187 A 
ATOM     15  N   UNL     1      36.527  29.035  46.453  1.00  0.00    -0.220 NA
ATOM     16  S   UNL     1      36.556  30.082  48.790  1.00  0.00    -0.105 S 
ATOM     17  C   UNL     1      36.426  30.407  46.271  1.00  0.00     0.085 A 
ATOM     18  C   UNL     1      36.417  31.133  47.445  1.00  0.00     0.097 A 
BRANCH  17  19
ATOM     19  C   UNL     1      36.342  30.976  44.930  1.00  0.00     0.019 A 
ATOM     20  C   UNL     1      35.460  30.512  43.948  1.00  0.00     0.013 A 
ATOM     21  C   UNL     1      37.161  32.048  44.576  1.00  0.00     0.121 A 
ATOM     22  C   UNL     1      35.433  31.118  42.690  1.00  0.00     0.021 A 
ATOM     23  N   UNL     1      37.158  32.656  43.362  1.00  0.00    -0.264 NA
ATOM     24  C   UNL     1      36.292  32.176  42.448  1.00  0.00     0.111 A 
ENDBRANCH  17  19
ENDBRANCH  12  14
ENDBRANCH   8  12
ENDBRANCH   1   5
BRANCH   2  25
ATOM     25  C   UNL     1      30.109  25.584  45.727  1.00  0.00     0.040 A 
ATOM     26  C   UNL     1      28.942  24.814  45.727  1.00  0.00     0.014 A 
ATOM     27  C   UNL     1      30.154  26.780  44.999  1.00  0.00     0.014 A 
ATOM     28  C   UNL     1      27.815  25.254  45.031  1.00  0.00     0.006 A 
ATOM     29  C   UNL     1      29.024  27.215  44.299  1.00  0.00     0.006 A 
ATOM     30  C   UNL     1      27.840  26.463  44.319  1.00  0.00    -0.034 A 
BRANCH  30  31
ATOM     31  C   UNL     1      26.618  26.929  43.548  1.00  0.00     0.120 C 
BRANCH  31  32
ATOM     32  N   UNL     1      25.538  25.926  43.535  1.00  0.00    -0.297 NA
ATOM     33  C   UNL     1      25.922  24.765  42.711  1.00  0.00     0.100 C 
ATOM     34  C   UNL     1      24.270  26.495  43.018  1.00  0.00     0.100 C 
ATOM     35  C   UNL     1      26.019  25.028  41.183  1.00  0.00     0.099 C 
ATOM     36  C   UNL     1      23.963  26.248  41.515  1.00  0.00     0.099 C 
ATOM     37  N   UNL     1      25.184  26.148  40.706  1.00  0.00    -0.304 NA
ATOM     38  C   UNL     1      24.885  26.019  39.284  1.00  0.00     0.105 C 
ENDBRANCH  31  32
ENDBRANCH  30  31
ENDBRANCH   2  25
TORSDOF 7
ENDMDL
MODEL 5
REMARK VINA RESULT:   -10.302      3.659     11.929
REMARK INTER + INTRA:         -14.823
REMARK INTER:                 -14.507
REMARK INTRA:                  -0.315
REMARK UNBOUND:                -0.305
REMARK SMILES Cc1ccc(NC(=O)c2ccc(CN3CCN(C)CC3)cc2)cc1Nc1nc(-c2cccnc2)cs1
REMARK SMILES IDX 6 1 7 2 8 3 5 5 2 6 3 7 24 8 4 9 23 10 1 11 25 12 26 14
REMARK SMILES IDX 27 15 36 16 28 17 35 18 29 19 30 20 34 21 31 22 33 23 32 24
REMARK SMILES IDX 9 25 10 26 22 27 11 28 21 29 12 30 13 31 14 32 15 33 20 34
REMARK SMILES IDX 16 35 19 36 17 37 18 38
REMARK H PARENT 6 4 25 13
ROOT
ATOM      1  N   UNL     1      23.634  26.221  35.119  1.00  0.00    -0.322 N 
ATOM      2  C   UNL     1      24.641  25.333  35.452  1.00  0.00     0.255 C 
ATOM      3  O   UNL     1      25.357  24.708  34.679  1.00  0.00    -0.269 OA
ATOM      4  H   UNL     1      23.239  26.763  35.875  1.00  0.00     0.170 HD
ENDROOT
BRANCH   1   5
ATOM      5  C   UNL     1      23.178  26.551  33.825  1.00  0.00     0.043 A 
ATOM      6  C   UNL     1      22.280  27.035  31.191  1.00  0.00    -0.027 A 
ATOM      7  C   UNL     1      22.827  25.795  31.542  1.00  0.00     0.008 A 
ATOM      8  C   UNL     1      22.211  28.052  32.162  1.00  0.00     0.045 A 
ATOM      9  C   UNL     1      23.269  25.556  32.846  1.00  0.00     0.026 A 
ATOM     10  C   UNL     1      22.659  27.796  33.471  1.00  0.00     0.052 A 
ATOM     11  C   UNL     1      21.812  27.258  29.779  1.00  0.00     0.046 C 
BRANCH   8  12
ATOM     12  N   UNL     1      21.707  29.334  31.834  1.00  0.00    -0.331 N 
ATOM     13  H   UNL     1      21.148  29.294  30.985  1.00  0.00     0.169 HD
BRANCH  12  14
ATOM     14  C   UNL     1      21.133  30.166  32.745  1.00  0.00     0.187 A 
ATOM     15  N   UNL     1      21.803  30.594  33.794  1.00  0.00    -0.220 NA
ATOM     16  S   UNL     1      19.503  30.736  32.674  1.00  0.00    -0.105 S 
ATOM     17  C   UNL     1      21.021  31.408  34.601  1.00  0.00     0.085 A 
ATOM     18  C   UNL     1      19.737  31.602  34.133  1.00  0.00     0.097 A 
BRANCH  17  19
ATOM     19  C   UNL     1      21.564  31.981  35.829  1.00  0.00     0.019 A 
ATOM     20  C   UNL     1      20.991  33.072  36.491  1.00  0.00     0.013 A 
ATOM     21  C   UNL     1      22.707  31.430  36.408  1.00  0.00     0.121 A 
ATOM     22  C   UNL     1      21.565  33.556  37.669  1.00  0.00     0.021 A 
ATOM     23  N   UNL     1      23.288  31.879  37.551  1.00  0.00    -0.264 NA
ATOM     24  C   UNL     1      22.701  32.932  38.154  1.00  0.00     0.111 A 
ENDBRANCH  17  19
ENDBRANCH  12  14
ENDBRANCH   8  12
ENDBRANCH   1   5
BRANCH   2  25
ATOM     25  C   UNL     1      24.882  25.192  36.915  1.00  0.00     0.040 A 
ATOM     26  C   UNL     1      24.381  26.175  37.773  1.00  0.00     0.014 A 
ATOM     27  C   UNL     1      25.604  24.112  37.439  1.00  0.00     0.014 A 
ATOM     28  C   UNL     1      24.572  26.063  39.151  1.00  0.00     0.006 A 
ATOM     29  C   UNL     1      25.797  24.005  38.820  1.00  0.00     0.006 A 
ATOM     30  C   UNL     1      25.272  24.972  39.690  1.00  0.00    -0.034 A 
BRANCH  30  31
ATOM     31  C   UNL     1      25.493  24.863  41.188  1.00  0.00     0.120 C 
BRANCH  31  32
ATOM     32  N   UNL     1      25.462  26.173  41.864  1.00  0.00    -0.297 NA
ATOM     33  C   UNL     1      26.812  26.764  41.905  1.00  0.00     0.100 C 
ATOM     34  C   UNL     1      24.933  26.062  43.246  1.00  0.00     0.100 C 
ATOM     35  C   UNL     1      27.832  26.046  42.829  1.00  0.00     0.099 C 
ATOM     36  C   UNL     1      25.987  25.958  44.383  1.00  0.00     0.099 C 
ATOM     37  N   UNL     1      27.220  25.293  43.941  1.00  0.00    -0.304 NA
ATOM     38  C   UNL     1      28.161  25.108  45.040  1.00  0.00     0.105 C 
ENDBRANCH  31  32
ENDBRANCH  30  31
ENDBRANCH   2  25
TORSDOF 7
ENDMDL
MODEL 6
REMARK VINA RESULT:   -10.119      3.776     12.438
REMARK INTER + INTRA:         -14.565
REMARK INTER:                 -13.827
REMARK INTRA:                  -0.737
REMARK UNBOUND:                -0.305
REMARK SMILES Cc1ccc(NC(=O)c2ccc(CN3CCN(C)CC3)cc2)cc1Nc1nc(-c2cccnc2)cs1
REMARK SMILES IDX 6 1 7 2 8 3 5 5 2 6 3 7 24 8 4 9 23 10 1 11 25 12 26 14
REMARK SMILES IDX 27 15 36 16 28 17 35 18 29 19 30 20 34 21 31 22 33 23 32 24
REMARK SMILES IDX 9 25 10 26 22 27 11 28 21 29 12 30 13 31 14 32 15 33 20 34
REMARK SMILES IDX 16 35 19 36 17 37 18 38
REMARK H PARENT 6 4 25 13
ROOT
ATOM      1  N   UNL     1      23.607  26.215  35.028  1.00  0.00    -0.322 N 
ATOM      2  C   UNL     1      24.646  25.374  35.386  1.00  0.00     0.255 C 
ATOM      3  O   UNL     1      25.412  24.788  34.631  1.00  0.00    -0.269 OA
ATOM      4  H   UNL     1      23.166  26.733  35.775  1.00  0.00     0.170 HD
ENDROOT
BRANCH   1   5
ATOM      5  C   UNL     1      23.174  26.531  33.723  1.00  0.00     0.043 A 
ATOM      6  C   UNL     1      22.301  26.985  31.076  1.00  0.00    -0.027 A 
ATOM      7  C   UNL     1      22.723  25.712  31.480  1.00  0.00     0.008 A 
ATOM      8  C   UNL     1      22.348  28.047  31.998  1.00  0.00     0.045 A 
ATOM      9  C   UNL     1      23.152  25.489  32.791  1.00  0.00     0.026 A 
ATOM     10  C   UNL     1      22.781  27.806  33.315  1.00  0.00     0.052 A 
ATOM     11  C   UNL     1      21.843  27.191  29.658  1.00  0.00     0.046 C 
BRANCH   8  12
ATOM     12  N   UNL     1      21.973  29.357  31.615  1.00  0.00    -0.331 N 
ATOM     13  H   UNL     1      20.965  29.425  31.503  1.00  0.00     0.169 HD
BRANCH  12  14
ATOM     14  C   UNL     1      22.463  30.478  32.211  1.00  0.00     0.187 A 
ATOM     15  N   UNL     1      23.626  30.985  31.858  1.00  0.00    -0.220 NA
ATOM     16  S   UNL     1      21.676  31.349  33.479  1.00  0.00    -0.105 S 
ATOM     17  C   UNL     1      23.941  32.109  32.608  1.00  0.00     0.085 A 
ATOM     18  C   UNL     1      22.981  32.457  33.535  1.00  0.00     0.097 A 
BRANCH  17  19
ATOM     19  C   UNL     1      25.197  32.820  32.390  1.00  0.00     0.019 A 
ATOM     20  C   UNL     1      26.419  32.415  32.938  1.00  0.00     0.013 A 
ATOM     21  C   UNL     1      25.220  33.963  31.591  1.00  0.00     0.121 A 
ATOM     22  C   UNL     1      27.580  33.145  32.674  1.00  0.00     0.021 A 
ATOM     23  N   UNL     1      26.333  34.693  31.317  1.00  0.00    -0.264 NA
ATOM     24  C   UNL     1      27.487  34.265  31.866  1.00  0.00     0.111 A 
ENDBRANCH  17  19
ENDBRANCH  12  14
ENDBRANCH   8  12
ENDBRANCH   1   5
BRANCH   2  25
ATOM     25  C   UNL     1      24.851  25.235  36.854  1.00  0.00     0.040 A 
ATOM     26  C   UNL     1      24.310  26.208  37.700  1.00  0.00     0.014 A 
ATOM     27  C   UNL     1      25.580  24.168  37.396  1.00  0.00     0.014 A 
ATOM     28  C   UNL     1      24.467  26.097  39.083  1.00  0.00     0.006 A 
ATOM     29  C   UNL     1      25.739  24.063  38.781  1.00  0.00     0.006 A 
ATOM     30  C   UNL     1      25.173  25.019  39.639  1.00  0.00    -0.034 A 
BRANCH  30  31
ATOM     31  C   UNL     1      25.357  24.912  41.142  1.00  0.00     0.120 C 
BRANCH  31  32
ATOM     32  N   UNL     1      25.317  26.223  41.814  1.00  0.00    -0.297 NA
ATOM     33  C   UNL     1      26.669  26.809  41.883  1.00  0.00     0.100 C 
ATOM     34  C   UNL     1      24.759  26.118  43.184  1.00  0.00     0.100 C 
ATOM     35  C   UNL     1      27.666  26.088  42.831  1.00  0.00     0.099 C 
ATOM     36  C   UNL     1      25.787  26.012  44.344  1.00  0.00     0.099 C 
ATOM     37  N   UNL     1      27.026  25.341  43.930  1.00  0.00    -0.304 NA
ATOM     38  C   UNL     1      27.943  25.154  45.050  1.00  0.00     0.105 C 
ENDBRANCH  31  32
ENDBRANCH  30  31
ENDBRANCH   2  25
TORSDOF 7
ENDMDL
MODEL 7
REMARK VINA RESULT:    -9.981      2.730     12.888
REMARK INTER + INTRA:         -14.371
REMARK INTER:                 -14.151
REMARK INTRA:                  -0.220
REMARK UNBOUND:                -0.305
REMARK SMILES Cc1ccc(NC(=O)c2ccc(CN3CCN(C)CC3)cc2)cc1Nc1nc(-c2cccnc2)cs1
REMARK SMILES IDX 6 1 7 2 8 3 5 5 2 6 3 7 24 8 4 9 23 10 1 11 25 12 26 14
REMARK SMILES IDX 27 15 36 16 28 17 35 18 29 19 30 20 34 21 31 22 33 23 32 24
REMARK SMILES IDX 9 25 10 26 22 27 11 28 21 29 12 30 13 31 14 32 15 33 20 34
REMARK SMILES IDX 16 35 19 36 17 37 18 38
REMARK H PARENT 6 4 25 13
ROOT
ATOM      1  N   UNL     1      27.574  25.685  44.596  1.00  0.00    -0.322 N 
ATOM      2  C   UNL     1      28.699  26.489  44.634  1.00  0.00     0.255 C 
ATOM      3  O   UNL     1      28.813  27.619  44.177  1.00  0.00    -0.269 OA
ATOM      4  H   UNL     1      27.601  24.840  45.149  1.00  0.00     0.170 HD
ENDROOT
BRANCH   1   5
ATOM      5  C   UNL     1      26.340  25.971  43.974  1.00  0.00     0.043 A 
ATOM      6  C   UNL     1      23.797  26.557  42.894  1.00  0.00    -0.027 A 
ATOM      7  C   UNL     1      23.945  26.270  44.257  1.00  0.00     0.008 A 
ATOM      8  C   UNL     1      24.929  26.519  42.059  1.00  0.00     0.045 A 
ATOM      9  C   UNL     1      25.204  25.982  44.790  1.00  0.00     0.026 A 
ATOM     10  C   UNL     1      26.191  26.229  42.611  1.00  0.00     0.052 A 
ATOM     11  C   UNL     1      22.427  26.864  42.353  1.00  0.00     0.046 C 
BRANCH   8  12
ATOM     12  N   UNL     1      24.813  26.758  40.669  1.00  0.00    -0.331 N 
ATOM     13  H   UNL     1      25.256  27.638  40.417  1.00  0.00     0.169 HD
BRANCH  12  14
ATOM     14  C   UNL     1      25.063  25.810  39.724  1.00  0.00     0.187 A 
ATOM     15  N   UNL     1      24.937  26.077  38.442  1.00  0.00    -0.220 NA
ATOM     16  S   UNL     1      25.536  24.182  40.058  1.00  0.00    -0.105 S 
ATOM     17  C   UNL     1      25.216  24.966  37.659  1.00  0.00     0.085 A 
ATOM     18  C   UNL     1      25.571  23.843  38.379  1.00  0.00     0.097 A 
BRANCH  17  19
ATOM     19  C   UNL     1      25.122  25.037  36.205  1.00  0.00     0.019 A 
ATOM     20  C   UNL     1      24.036  25.602  35.528  1.00  0.00     0.013 A 
ATOM     21  C   UNL     1      26.157  24.534  35.416  1.00  0.00     0.121 A 
ATOM     22  C   UNL     1      24.027  25.641  34.131  1.00  0.00     0.021 A 
ATOM     23  N   UNL     1      26.175  24.558  34.057  1.00  0.00    -0.264 NA
ATOM     24  C   UNL     1      25.108  25.112  33.448  1.00  0.00     0.111 A 
ENDBRANCH  17  19
ENDBRANCH  12  14
ENDBRANCH   8  12
ENDBRANCH   1   5
BRANCH   2  25
ATOM     25  C   UNL     1      29.856  25.897  45.363  1.00  0.00     0.040 A 
ATOM     26  C   UNL     1      29.634  24.783  46.177  1.00  0.00     0.014 A 
ATOM     27  C   UNL     1      31.143  26.440  45.262  1.00  0.00     0.014 A 
ATOM     28  C   UNL     1      30.699  24.192  46.859  1.00  0.00     0.006 A 
ATOM     29  C   UNL     1      32.207  25.849  45.949  1.00  0.00     0.006 A 
ATOM     30  C   UNL     1      31.998  24.712  46.744  1.00  0.00    -0.034 A 
BRANCH  30  31
ATOM     31  C   UNL     1      33.151  24.078  47.502  1.00  0.00     0.120 C 
BRANCH  31  32
ATOM     32  N   UNL     1      33.353  24.677  48.834  1.00  0.00    -0.297 NA
ATOM     33  C   UNL     1      33.521  26.137  48.724  1.00  0.00     0.100 C 
ATOM     34  C   UNL     1      34.535  24.098  49.519  1.00  0.00     0.100 C 
ATOM     35  C   UNL     1      34.837  26.613  48.049  1.00  0.00     0.099 C 
ATOM     36  C   UNL     1      35.860  24.901  49.408  1.00  0.00     0.099 C 
ATOM     37  N   UNL     1      35.952  25.652  48.150  1.00  0.00    -0.304 NA
ATOM     38  C   UNL     1      37.242  26.319  48.009  1.00  0.00     0.105 C 
ENDBRANCH  31  32
ENDBRANCH  30  31
ENDBRANCH   2  25
TORSDOF 7
ENDMDL
MODEL 8
REMARK VINA RESULT:    -9.925      6.232     13.316
REMARK INTER + INTRA:         -14.292
REMARK INTER:                 -14.682
REMARK INTRA:                   0.390
REMARK UNBOUND:                -0.305
REMARK SMILES Cc1ccc(NC(=O)c2ccc(CN3CCN(C)CC3)cc2)cc1Nc1nc(-c2cccnc2)cs1
REMARK SMILES IDX 6 1 7 2 8 3 5 5 2 6 3 7 24 8 4 9 23 10 1 11 25 12 26 14
REMARK SMILES IDX 27 15 36 16 28 17 35 18 29 19 30 20 34 21 31 22 33 23 32 24
REMARK SMILES IDX 9 25 10 26 22 27 11 28 21 29 12 30 13 31 14 32 15 33 20 34
REMARK SMILES IDX 16 35 19 36 17 37 18 38
REMARK H PARENT 6 4 25 13
ROOT
ATOM      1  N   UNL     1      33.636  27.796  46.151  1.00  0.00    -0.322 N 
ATOM      2  C   UNL     1      34.983  27.953  46.423  1.00  0.00     0.255 C 
ATOM      3  O   UNL     1      35.740  27.119  46.903  1.00  0.00    -0.269 OA
ATOM      4  H   UNL     1      33.192  28.532  45.619  1.00  0.00     0.170 HD
ENDROOT
BRANCH   1   5
ATOM      5  C   UNL     1      32.835  26.666  46.422  1.00  0.00     0.043 A 
ATOM      6  C   UNL     1      31.378  24.327  47.040  1.00  0.00    -0.027 A 
ATOM      7  C   UNL     1      32.772  24.356  47.173  1.00  0.00     0.008 A 
ATOM      8  C   UNL     1      30.713  25.471  46.563  1.00  0.00     0.045 A 
ATOM      9  C   UNL     1      33.491  25.515  46.869  1.00  0.00     0.026 A 
ATOM     10  C   UNL     1      31.450  26.631  46.262  1.00  0.00     0.052 A 
ATOM     11  C   UNL     1      30.635  23.064  47.378  1.00  0.00     0.046 C 
BRANCH   8  12
ATOM     12  N   UNL     1      29.310  25.466  46.371  1.00  0.00    -0.331 N 
ATOM     13  H   UNL     1      28.835  25.857  47.181  1.00  0.00     0.169 HD
BRANCH  12  14
ATOM     14  C   UNL     1      28.711  25.881  45.221  1.00  0.00     0.187 A 
ATOM     15  N   UNL     1      27.401  25.883  45.098  1.00  0.00    -0.220 NA
ATOM     16  S   UNL     1      29.548  26.418  43.808  1.00  0.00    -0.105 S 
ATOM     17  C   UNL     1      27.007  26.319  43.841  1.00  0.00     0.085 A 
ATOM     18  C   UNL     1      28.054  26.663  43.009  1.00  0.00     0.097 A 
BRANCH  17  19
ATOM     19  C   UNL     1      25.594  26.386  43.484  1.00  0.00     0.019 A 
ATOM     20  C   UNL     1      24.562  26.446  44.427  1.00  0.00     0.013 A 
ATOM     21  C   UNL     1      25.214  26.402  42.142  1.00  0.00     0.121 A 
ATOM     22  C   UNL     1      23.232  26.518  44.005  1.00  0.00     0.021 A 
ATOM     23  N   UNL     1      23.931  26.471  41.702  1.00  0.00    -0.264 NA
ATOM     24  C   UNL     1      22.970  26.528  42.646  1.00  0.00     0.111 A 
ENDBRANCH  17  19
ENDBRANCH  12  14
ENDBRANCH   8  12
ENDBRANCH   1   5
BRANCH   2  25
ATOM     25  C   UNL     1      35.544  29.275  46.026  1.00  0.00     0.040 A 
ATOM     26  C   UNL     1      36.242  30.020  46.981  1.00  0.00     0.014 A 
ATOM     27  C   UNL     1      35.373  29.787  44.733  1.00  0.00     0.014 A 
ATOM     28  C   UNL     1      36.797  31.253  46.636  1.00  0.00     0.006 A 
ATOM     29  C   UNL     1      35.926  31.025  44.392  1.00  0.00     0.006 A 
ATOM     30  C   UNL     1      36.654  31.764  45.336  1.00  0.00    -0.034 A 
BRANCH  30  31
ATOM     31  C   UNL     1      37.243  33.114  44.970  1.00  0.00     0.120 C 
BRANCH  31  32
ATOM     32  N   UNL     1      36.221  34.078  44.522  1.00  0.00    -0.297 NA
ATOM     33  C   UNL     1      36.731  35.457  44.627  1.00  0.00     0.100 C 
ATOM     34  C   UNL     1      34.971  33.955  45.312  1.00  0.00     0.100 C 
ATOM     35  C   UNL     1      36.938  35.988  46.073  1.00  0.00     0.099 C 
ATOM     36  C   UNL     1      34.802  34.948  46.495  1.00  0.00     0.099 C 
ATOM     37  N   UNL     1      36.088  35.335  47.087  1.00  0.00    -0.304 NA
ATOM     38  C   UNL     1      35.914  36.184  48.260  1.00  0.00     0.105 C 
ENDBRANCH  31  32
ENDBRANCH  30  31
ENDBRANCH   2  25
TORSDOF 7
ENDMDL
