REMARK SMILES C[C@H]1N[C@@H](N[C@@H](O)N2CCC[C@H]2[C@@H](N)O)S[C@@H]1[C@H]1CCN[C@H](C(C)(C)C(F)(F)F)C1
REMARK SMILES IDX 5 1 4 3 2 4 17 5 3 6 16 7 1 8 18 10 19 11 30 12 20 13 22 14
REMARK SMILES IDX 21 15 23 17 24 18 25 19 26 20 27 21 28 22 29 23 6 24 7 25
REMARK SMILES IDX 8 27 12 28 9 29 11 30 10 31 13 32 15 33 14 35
REMARK H PARENT 5 2 3 9 21 16 7 26 15 34 14 36 14 37
ROOT
ATOM      1  N   UNL     1      -0.829  -9.958  13.725  1.00  0.00    -0.255 NA
ATOM      2  H   UNL     1      -1.492  -9.728  12.971  1.00  0.00     0.129 HD
ENDROOT
BRANCH   1   3
ATOM      3  C   UNL     1      -1.603 -10.421  14.772  1.00  0.00     0.185 C 
ATOM      4  C   UNL     1      -3.080 -11.729  15.773  1.00  0.00     0.066 C 
ATOM      5  C   UNL     1      -2.750 -10.938  16.869  1.00  0.00     0.069 C 
ATOM      6  N   UNL     1      -2.419 -11.429  14.599  1.00  0.00    -0.290 NA
ATOM      7  S   UNL     1      -1.577  -9.746  16.362  1.00  0.00    -0.122 SA
ATOM      8  C   UNL     1      -4.052 -12.864  15.772  1.00  0.00     0.025 C 
ATOM      9  H   UNL     1      -1.880 -12.252  14.295  1.00  0.00     0.125 HD
BRANCH   5  10
ATOM     10  C   UNL     1      -3.184 -10.890  18.283  1.00  0.00     0.006 C 
ATOM     11  C   UNL     1      -4.273 -11.629  18.732  1.00  0.00     0.020 C 
ATOM     12  C   UNL     1      -2.478 -10.114  19.197  1.00  0.00     0.024 C 
ATOM     13  C   UNL     1      -4.639 -11.527  20.056  1.00  0.00     0.081 C 
ATOM     14  C   UNL     1      -2.916 -10.090  20.529  1.00  0.00     0.068 C 
ATOM     15  N   UNL     1      -3.991 -10.769  20.952  1.00  0.00    -0.313 NA
ATOM     16  H   UNL     1      -4.665 -10.082  21.319  1.00  0.00     0.122 HD
BRANCH  14  17
ATOM     17  C   UNL     1      -2.140  -9.303  21.613  1.00  0.00     0.076 C 
ATOM     18  C   UNL     1      -1.064  -8.403  20.984  1.00  0.00     0.022 C 
ATOM     19  C   UNL     1      -3.111  -8.446  22.444  1.00  0.00     0.022 C 
BRANCH  17  20
ATOM     20  C   UNL     1      -1.381 -10.337  22.622  1.00  0.00     0.395 C 
ATOM     21  F   UNL     1      -0.682  -9.668  23.538  1.00  0.00    -0.170 F 
ATOM     22  F   UNL     1      -2.219 -11.132  23.277  1.00  0.00    -0.170 F 
ATOM     23  F   UNL     1      -0.536 -11.132  21.975  1.00  0.00    -0.170 F 
ENDBRANCH  17  20
ENDBRANCH  14  17
ENDBRANCH   5  10
ENDBRANCH   1   3
BRANCH   1  24
ATOM     24  C   UNL     1       0.044  -8.863  13.808  1.00  0.00     0.261 C 
BRANCH  24  25
ATOM     25  O   UNL     1       0.190  -8.235  14.846  1.00  0.00    -0.365 OA
ATOM     26  H   UNL     1       0.050  -8.838  15.619  1.00  0.00     0.214 HD
ENDBRANCH  24  25
BRANCH  24  27
ATOM     27  N   UNL     1       0.739  -8.517  12.665  1.00  0.00    -0.259 NA
ATOM     28  C   UNL     1       1.680  -7.385  12.691  1.00  0.00     0.104 C 
ATOM     29  C   UNL     1       0.676  -9.166  11.346  1.00  0.00     0.089 C 
ATOM     30  C   UNL     1       2.307  -7.399  11.288  1.00  0.00     0.025 C 
ATOM     31  C   UNL     1       1.328  -8.159  10.424  1.00  0.00     0.017 C 
BRANCH  28  32
ATOM     32  C   UNL     1       1.016  -6.045  13.014  1.00  0.00     0.197 C 
BRANCH  32  33
ATOM     33  O   UNL     1       1.610  -5.205  13.696  1.00  0.00    -0.377 OA
ATOM     34  H   UNL     1       1.471  -5.402  14.656  1.00  0.00     0.212 HD
ENDBRANCH  32  33
BRANCH  32  35
ATOM     35  N   UNL     1      -0.227  -5.881  12.591  1.00  0.00    -0.305 NA
ATOM     36  H   UNL     1      -0.857  -5.798  13.401  1.00  0.00     0.121 HD
ATOM     37  H   UNL     1      -0.286  -5.025  12.021  1.00  0.00     0.121 HD
ENDBRANCH  32  35
ENDBRANCH  28  32
ENDBRANCH  24  27
ENDBRANCH   1  24
TORSDOF 10
