REMARK SMILES P
REMARK SMILES IDX 1 1
REMARK H PARENT 1 2 1 3 1 4
ROOT
ATOM      1  P   UNL     1     135.849 150.553 173.072  1.00  0.00    -0.153 P 
ATOM      2  H   UNL     1     137.229 150.553 173.072  1.00  0.00     0.051 HD
ATOM      3  H   UNL     1     135.389 151.753 172.569  1.00  0.00     0.051 HD
ATOM      4  H   UNL     1     135.389 150.388 174.363  1.00  0.00     0.051 HD
ENDROOT
TORSDOF 0
