REMARK SMILES COC(=O)C1=C(C)NC(C)=C(C(=O)OC(C)C)[C@@H]1c1cccc2nonc12
REMARK SMILES IDX 7 1 6 2 5 3 18 4 11 5 9 6 8 7 10 8 3 10 4 11 2 12 1 13 19 14
REMARK SMILES IDX 20 15 27 16 21 17 26 18 23 19 22 20 25 21 24 22 12 23 13 24
REMARK SMILES IDX 14 25 15 26 16 27 17 28
REMARK H PARENT 8 9
ROOT
ATOM      1  C   UNL     1       3.258  -2.747  -1.257  1.00  0.00     0.065 C 
ATOM      2  C   UNL     1       2.045  -2.050  -0.695  1.00  0.00     0.023 C 
ATOM      3  C   UNL     1       2.086  -1.006   0.164  1.00  0.00     0.068 C 
ATOM      4  C   UNL     1       0.807  -0.363   0.692  1.00  0.00     0.100 C 
ATOM      5  C   UNL     1      -0.459  -1.064   0.215  1.00  0.00     0.068 C 
ATOM      6  C   UNL     1      -0.410  -2.116  -0.632  1.00  0.00     0.023 C 
ATOM      7  N   UNL     1       0.819  -2.570  -1.083  1.00  0.00    -0.362 N 
ATOM      8  C   UNL     1      -1.611  -2.892  -1.107  1.00  0.00     0.065 C 
ATOM      9  H   UNL     1       0.823  -3.329  -1.760  1.00  0.00     0.166 HD
ENDROOT
BRANCH   3  10
ATOM     10  C   UNL     1       3.372  -0.421   0.605  1.00  0.00     0.336 C 
ATOM     11  O   UNL     1       4.331  -0.211  -0.121  1.00  0.00    -0.246 OA
BRANCH  10  12
ATOM     12  O   UNL     1       3.314  -0.159   1.937  1.00  0.00    -0.466 OA
ATOM     13  C   UNL     1       4.510   0.415   2.464  1.00  0.00     0.282 C 
ENDBRANCH  10  12
ENDBRANCH   3  10
BRANCH   4  14
ATOM     14  C   UNL     1       0.760   1.127   0.379  1.00  0.00    -0.004 A 
ATOM     15  C   UNL     1       0.739   2.096   1.420  1.00  0.00     0.007 A 
ATOM     16  C   UNL     1       0.717   1.703  -0.916  1.00  0.00     0.139 A 
ATOM     17  C   UNL     1       0.688   3.498   1.202  1.00  0.00     0.003 A 
ATOM     18  N   UNL     1       0.709   1.107  -2.116  1.00  0.00    -0.049 NA
ATOM     19  C   UNL     1       0.663   3.144  -1.135  1.00  0.00     0.135 A 
ATOM     20  C   UNL     1       0.650   4.073  -0.079  1.00  0.00     0.034 A 
ATOM     21  O   UNL     1       0.660   2.124  -3.050  1.00  0.00    -0.243 OA
ATOM     22  N   UNL     1       0.627   3.372  -2.453  1.00  0.00    -0.050 NA
ENDBRANCH   4  14
BRANCH   5  23
ATOM     23  C   UNL     1      -1.714  -0.523   0.777  1.00  0.00     0.337 C 
ATOM     24  O   UNL     1      -1.868  -0.294   1.967  1.00  0.00    -0.246 OA
BRANCH  23  25
ATOM     25  O   UNL     1      -2.587  -0.242  -0.220  1.00  0.00    -0.460 OA
BRANCH  25  26
ATOM     26  C   UNL     1      -3.818   0.389   0.174  1.00  0.00     0.170 C 
ATOM     27  C   UNL     1      -4.326   1.171  -1.031  1.00  0.00     0.052 C 
ATOM     28  C   UNL     1      -4.824  -0.676   0.594  1.00  0.00     0.052 C 
ENDBRANCH  25  26
ENDBRANCH  23  25
ENDBRANCH   5  23
TORSDOF 6
