MODEL 1
REMARK VINA RESULT:    -9.852      0.000      0.000
REMARK INTER + INTRA:         -11.326
REMARK INTER:                 -11.004
REMARK INTRA:                  -0.321
REMARK UNBOUND:                -0.321
REMARK SMILES O=C(N[C@H]1CN2CCC1CC2)c1cc2cccc(Cl)c2s1
REMARK SMILES IDX 12 1 13 2 14 3 20 4 18 5 17 6 16 7 15 8 21 9 19 10 2 11 3 12
REMARK SMILES IDX 1 13 4 15 9 16 5 17 8 18 10 19 6 20 7 21 11 22
REMARK H PARENT 3 14
ROOT
ATOM      1  C   UNL     1     143.898 138.497  90.718  1.00  0.00     0.093 A 
ATOM      2  C   UNL     1     143.409 137.268  91.002  1.00  0.00     0.034 A 
ATOM      3  C   UNL     1     144.313 136.220  91.384  1.00  0.00    -0.005 A 
ATOM      4  C   UNL     1     145.687 136.641  91.419  1.00  0.00     0.054 A 
ATOM      5  C   UNL     1     146.666 135.743  91.771  1.00  0.00     0.058 A 
ATOM      6  C   UNL     1     146.320 134.426  92.092  1.00  0.00     0.022 A 
ATOM      7  C   UNL     1     144.976 134.019  92.056  1.00  0.00     0.002 A 
ATOM      8  C   UNL     1     143.980 134.929  91.699  1.00  0.00     0.010 A 
ATOM      9  S   UNL     1     145.622 138.392  90.934  1.00  0.00    -0.128 S 
ATOM     10  Cl  UNL     1     148.374 136.253  91.816  1.00  0.00    -0.083 Cl
ENDROOT
BRANCH   1  11
ATOM     11  C   UNL     1     143.069 139.715  90.295  1.00  0.00     0.261 C 
ATOM     12  N   UNL     1     141.624 139.631  90.211  1.00  0.00    -0.347 N 
ATOM     13  O   UNL     1     143.616 140.732  90.031  1.00  0.00    -0.268 OA
ATOM     14  H   UNL     1     141.163 138.789  90.426  1.00  0.00     0.164 HD
BRANCH  12  15
ATOM     15  C   UNL     1     140.848 140.823  89.799  1.00  0.00     0.099 C 
ATOM     16  C   UNL     1     139.601 140.893  90.555  1.00  0.00     0.015 C 
ATOM     17  C   UNL     1     140.499 140.731  88.300  1.00  0.00     0.109 C 
ATOM     18  C   UNL     1     138.853 142.032  90.099  1.00  0.00     0.021 C 
ATOM     19  C   UNL     1     138.824 139.689  90.272  1.00  0.00     0.021 C 
ATOM     20  N   UNL     1     139.117 140.770  88.100  1.00  0.00    -0.301 NA
ATOM     21  C   UNL     1     138.589 141.929  88.626  1.00  0.00     0.085 C 
ATOM     22  C   UNL     1     138.512 139.654  88.727  1.00  0.00     0.085 C 
ENDBRANCH  12  15
ENDBRANCH   1  11
TORSDOF 2
ENDMDL
MODEL 2
REMARK VINA RESULT:    -9.111      1.325      1.875
REMARK INTER + INTRA:         -10.498
REMARK INTER:                 -10.195
REMARK INTRA:                  -0.303
REMARK UNBOUND:                -0.321
REMARK SMILES O=C(N[C@H]1CN2CCC1CC2)c1cc2cccc(Cl)c2s1
REMARK SMILES IDX 12 1 13 2 14 3 20 4 18 5 17 6 16 7 15 8 21 9 19 10 2 11 3 12
REMARK SMILES IDX 1 13 4 15 9 16 5 17 8 18 10 19 6 20 7 21 11 22
REMARK H PARENT 3 14
ROOT
ATOM      1  C   UNL     1     144.234 138.652  90.678  1.00  0.00     0.093 A 
ATOM      2  C   UNL     1     145.571 138.710  90.877  1.00  0.00     0.034 A 
ATOM      3  C   UNL     1     146.271 137.536  91.315  1.00  0.00    -0.005 A 
ATOM      4  C   UNL     1     145.413 136.396  91.490  1.00  0.00     0.054 A 
ATOM      5  C   UNL     1     145.946 135.200  91.906  1.00  0.00     0.058 A 
ATOM      6  C   UNL     1     147.318 135.098  92.155  1.00  0.00     0.022 A 
ATOM      7  C   UNL     1     148.154 136.215  91.983  1.00  0.00     0.002 A 
ATOM      8  C   UNL     1     147.615 137.431  91.561  1.00  0.00     0.010 A 
ATOM      9  S   UNL     1     143.762 137.019  91.052  1.00  0.00    -0.128 S 
ATOM     10  Cl  UNL     1     144.891 133.780  92.128  1.00  0.00    -0.083 Cl
ENDROOT
BRANCH   1  11
ATOM     11  C   UNL     1     143.345 139.812  90.216  1.00  0.00     0.261 C 
ATOM     12  N   UNL     1     141.909 139.643  90.107  1.00  0.00    -0.347 N 
ATOM     13  O   UNL     1     143.837 140.854  89.943  1.00  0.00    -0.268 OA
ATOM     14  H   UNL     1     141.493 138.779  90.330  1.00  0.00     0.164 HD
BRANCH  12  15
ATOM     15  C   UNL     1     141.074 140.780  89.658  1.00  0.00     0.099 C 
ATOM     16  C   UNL     1     139.861 140.859  90.467  1.00  0.00     0.015 C 
ATOM     17  C   UNL     1     140.660 140.579  88.187  1.00  0.00     0.109 C 
ATOM     18  C   UNL     1     139.054 141.941  89.976  1.00  0.00     0.021 C 
ATOM     19  C   UNL     1     139.114 139.615  90.299  1.00  0.00     0.021 C 
ATOM     20  N   UNL     1     139.269 140.561  88.050  1.00  0.00    -0.301 NA
ATOM     21  C   UNL     1     138.726 141.734  88.527  1.00  0.00     0.085 C 
ATOM     22  C   UNL     1     138.733 139.469  88.776  1.00  0.00     0.085 C 
ENDBRANCH  12  15
ENDBRANCH   1  11
TORSDOF 2
ENDMDL
MODEL 3
REMARK VINA RESULT:    -7.945      1.824      2.325
REMARK INTER + INTRA:          -9.195
REMARK INTER:                  -8.892
REMARK INTRA:                  -0.303
REMARK UNBOUND:                -0.321
REMARK SMILES O=C(N[C@H]1CN2CCC1CC2)c1cc2cccc(Cl)c2s1
REMARK SMILES IDX 12 1 13 2 14 3 20 4 18 5 17 6 16 7 15 8 21 9 19 10 2 11 3 12
REMARK SMILES IDX 1 13 4 15 9 16 5 17 8 18 10 19 6 20 7 21 11 22
REMARK H PARENT 3 14
ROOT
ATOM      1  C   UNL     1     142.390 136.903  90.807  1.00  0.00     0.093 A 
ATOM      2  C   UNL     1     142.791 135.639  91.075  1.00  0.00     0.034 A 
ATOM      3  C   UNL     1     144.146 135.401  91.484  1.00  0.00    -0.005 A 
ATOM      4  C   UNL     1     144.935 136.601  91.560  1.00  0.00     0.054 A 
ATOM      5  C   UNL     1     146.254 136.527  91.941  1.00  0.00     0.058 A 
ATOM      6  C   UNL     1     146.820 135.287  92.251  1.00  0.00     0.022 A 
ATOM      7  C   UNL     1     146.046 134.116  92.175  1.00  0.00     0.002 A 
ATOM      8  C   UNL     1     144.707 134.189  91.789  1.00  0.00     0.010 A 
ATOM      9  S   UNL     1     143.779 137.917  91.074  1.00  0.00    -0.128 S 
ATOM     10  Cl  UNL     1     147.241 138.008  92.037  1.00  0.00    -0.083 Cl
ENDROOT
BRANCH   1  11
ATOM     11  C   UNL     1     140.985 137.321  90.359  1.00  0.00     0.261 C 
ATOM     12  N   UNL     1     140.710 138.692  89.975  1.00  0.00    -0.347 N 
ATOM     13  O   UNL     1     140.116 136.517  90.330  1.00  0.00    -0.268 OA
ATOM     14  H   UNL     1     141.426 139.367  89.998  1.00  0.00     0.164 HD
BRANCH  12  15
ATOM     15  C   UNL     1     139.344 139.069  89.547  1.00  0.00     0.099 C 
ATOM     16  C   UNL     1     139.409 139.939  88.376  1.00  0.00     0.015 C 
ATOM     17  C   UNL     1     138.631 139.836  90.678  1.00  0.00     0.109 C 
ATOM     18  C   UNL     1     138.072 140.322  88.017  1.00  0.00     0.021 C 
ATOM     19  C   UNL     1     140.151 141.144  88.740  1.00  0.00     0.021 C 
ATOM     20  N   UNL     1     138.234 141.107  90.256  1.00  0.00    -0.301 NA
ATOM     21  C   UNL     1     137.397 141.010  89.166  1.00  0.00     0.085 C 
ATOM     22  C   UNL     1     139.374 141.870  89.904  1.00  0.00     0.085 C 
ENDBRANCH  12  15
ENDBRANCH   1  11
TORSDOF 2
ENDMDL
MODEL 4
REMARK VINA RESULT:    -7.633      3.901      7.991
REMARK INTER + INTRA:          -8.846
REMARK INTER:                  -8.531
REMARK INTRA:                  -0.315
REMARK UNBOUND:                -0.321
REMARK SMILES O=C(N[C@H]1CN2CCC1CC2)c1cc2cccc(Cl)c2s1
REMARK SMILES IDX 12 1 13 2 14 3 20 4 18 5 17 6 16 7 15 8 21 9 19 10 2 11 3 12
REMARK SMILES IDX 1 13 4 15 9 16 5 17 8 18 10 19 6 20 7 21 11 22
REMARK H PARENT 3 14
ROOT
ATOM      1  C   UNL     1     144.071 138.639  91.386  1.00  0.00     0.093 A 
ATOM      2  C   UNL     1     143.146 137.666  91.216  1.00  0.00     0.034 A 
ATOM      3  C   UNL     1     141.866 137.998  90.658  1.00  0.00    -0.005 A 
ATOM      4  C   UNL     1     141.733 139.393  90.335  1.00  0.00     0.054 A 
ATOM      5  C   UNL     1     140.559 139.857  89.790  1.00  0.00     0.058 A 
ATOM      6  C   UNL     1     139.503 138.971  89.554  1.00  0.00     0.022 A 
ATOM      7  C   UNL     1     139.637 137.608  89.872  1.00  0.00     0.002 A 
ATOM      8  C   UNL     1     140.828 137.135  90.425  1.00  0.00     0.010 A 
ATOM      9  S   UNL     1     143.333 140.109  90.815  1.00  0.00    -0.128 S 
ATOM     10  Cl  UNL     1     140.382 141.584  89.387  1.00  0.00    -0.083 Cl
ENDROOT
BRANCH   1  11
ATOM     11  C   UNL     1     145.476 138.449  91.968  1.00  0.00     0.261 C 
ATOM     12  N   UNL     1     146.493 137.737  91.220  1.00  0.00    -0.347 N 
ATOM     13  O   UNL     1     145.730 138.885  93.039  1.00  0.00    -0.268 OA
ATOM     14  H   UNL     1     146.289 137.369  90.330  1.00  0.00     0.164 HD
BRANCH  12  15
ATOM     15  C   UNL     1     147.843 137.567  91.806  1.00  0.00     0.099 C 
ATOM     16  C   UNL     1     148.857 138.045  90.871  1.00  0.00     0.015 C 
ATOM     17  C   UNL     1     148.111 136.075  92.085  1.00  0.00     0.109 C 
ATOM     18  C   UNL     1     150.153 137.824  91.450  1.00  0.00     0.021 C 
ATOM     19  C   UNL     1     148.760 137.258  89.644  1.00  0.00     0.021 C 
ATOM     20  N   UNL     1     149.243 135.627  91.400  1.00  0.00    -0.301 NA
ATOM     21  C   UNL     1     150.346 136.369  91.760  1.00  0.00     0.085 C 
ATOM     22  C   UNL     1     149.034 135.748  90.004  1.00  0.00     0.085 C 
ENDBRANCH  12  15
ENDBRANCH   1  11
TORSDOF 2
ENDMDL
MODEL 5
REMARK VINA RESULT:    -7.535      3.923      8.159
REMARK INTER + INTRA:          -8.738
REMARK INTER:                  -8.432
REMARK INTRA:                  -0.305
REMARK UNBOUND:                -0.321
REMARK SMILES O=C(N[C@H]1CN2CCC1CC2)c1cc2cccc(Cl)c2s1
REMARK SMILES IDX 12 1 13 2 14 3 20 4 18 5 17 6 16 7 15 8 21 9 19 10 2 11 3 12
REMARK SMILES IDX 1 13 4 15 9 16 5 17 8 18 10 19 6 20 7 21 11 22
REMARK H PARENT 3 14
ROOT
ATOM      1  C   UNL     1     144.411 138.248  91.488  1.00  0.00     0.093 A 
ATOM      2  C   UNL     1     143.711 139.347  91.122  1.00  0.00     0.034 A 
ATOM      3  C   UNL     1     142.346 139.207  90.702  1.00  0.00    -0.005 A 
ATOM      4  C   UNL     1     141.881 137.846  90.730  1.00  0.00     0.054 A 
ATOM      5  C   UNL     1     140.590 137.560  90.354  1.00  0.00     0.058 A 
ATOM      6  C   UNL     1     139.738 138.592  89.947  1.00  0.00     0.022 A 
ATOM      7  C   UNL     1     140.197 139.920  89.920  1.00  0.00     0.002 A 
ATOM      8  C   UNL     1     141.507 140.213  90.301  1.00  0.00     0.010 A 
ATOM      9  S   UNL     1     143.321 136.903  91.313  1.00  0.00    -0.128 S 
ATOM     10  Cl  UNL     1     140.003 135.877  90.384  1.00  0.00    -0.083 Cl
ENDROOT
BRANCH   1  11
ATOM     11  C   UNL     1     145.870 138.230  91.956  1.00  0.00     0.261 C 
ATOM     12  N   UNL     1     146.911 137.686  91.106  1.00  0.00    -0.347 N 
ATOM     13  O   UNL     1     146.148 138.661  93.024  1.00  0.00    -0.268 OA
ATOM     14  H   UNL     1     146.689 137.324  90.218  1.00  0.00     0.164 HD
BRANCH  12  15
ATOM     15  C   UNL     1     148.313 137.681  91.583  1.00  0.00     0.099 C 
ATOM     16  C   UNL     1     149.215 138.036  90.491  1.00  0.00     0.015 C 
ATOM     17  C   UNL     1     148.693 136.272  92.082  1.00  0.00     0.109 C 
ATOM     18  C   UNL     1     150.566 137.976  90.976  1.00  0.00     0.021 C 
ATOM     19  C   UNL     1     149.062 137.046  89.428  1.00  0.00     0.021 C 
ATOM     20  N   UNL     1     149.788 135.765  91.378  1.00  0.00    -0.301 NA
ATOM     21  C   UNL     1     150.871 136.607  91.506  1.00  0.00     0.085 C 
ATOM     22  C   UNL     1     149.456 135.634  90.008  1.00  0.00     0.085 C 
ENDBRANCH  12  15
ENDBRANCH   1  11
TORSDOF 2
ENDMDL
MODEL 6
REMARK VINA RESULT:    -7.391      3.443      7.812
REMARK INTER + INTRA:          -8.576
REMARK INTER:                  -8.261
REMARK INTRA:                  -0.315
REMARK UNBOUND:                -0.321
REMARK SMILES O=C(N[C@H]1CN2CCC1CC2)c1cc2cccc(Cl)c2s1
REMARK SMILES IDX 12 1 13 2 14 3 20 4 18 5 17 6 16 7 15 8 21 9 19 10 2 11 3 12
REMARK SMILES IDX 1 13 4 15 9 16 5 17 8 18 10 19 6 20 7 21 11 22
REMARK H PARENT 3 14
ROOT
ATOM      1  C   UNL     1     142.831 139.931  90.267  1.00  0.00     0.093 A 
ATOM      2  C   UNL     1     141.742 140.276  90.992  1.00  0.00     0.034 A 
ATOM      3  C   UNL     1     140.468 140.390  90.342  1.00  0.00    -0.005 A 
ATOM      4  C   UNL     1     140.522 140.104  88.934  1.00  0.00     0.054 A 
ATOM      5  C   UNL     1     139.375 140.172  88.180  1.00  0.00     0.058 A 
ATOM      6  C   UNL     1     138.163 140.519  88.786  1.00  0.00     0.022 A 
ATOM      7  C   UNL     1     138.115 140.799  90.163  1.00  0.00     0.002 A 
ATOM      8  C   UNL     1     139.278 140.730  90.930  1.00  0.00     0.010 A 
ATOM      9  S   UNL     1     142.272 139.716  88.633  1.00  0.00    -0.128 S 
ATOM     10  Cl  UNL     1     139.430 139.820  86.433  1.00  0.00    -0.083 Cl
ENDROOT
BRANCH   1  11
ATOM     11  C   UNL     1     144.255 139.770  90.809  1.00  0.00     0.261 C 
ATOM     12  N   UNL     1     144.877 138.461  90.872  1.00  0.00    -0.347 N 
ATOM     13  O   UNL     1     144.851 140.723  91.183  1.00  0.00    -0.268 OA
ATOM     14  H   UNL     1     144.388 137.664  90.565  1.00  0.00     0.164 HD
BRANCH  12  15
ATOM     15  C   UNL     1     146.255 138.334  91.400  1.00  0.00     0.099 C 
ATOM     16  C   UNL     1     147.185 138.055  90.310  1.00  0.00     0.015 C 
ATOM     17  C   UNL     1     146.326 137.167  92.405  1.00  0.00     0.109 C 
ATOM     18  C   UNL     1     148.501 137.892  90.862  1.00  0.00     0.021 C 
ATOM     19  C   UNL     1     146.791 136.798  89.680  1.00  0.00     0.021 C 
ATOM     20  N   UNL     1     147.265 136.212  92.005  1.00  0.00    -0.301 NA
ATOM     21  C   UNL     1     148.510 136.788  91.877  1.00  0.00     0.085 C 
ATOM     22  C   UNL     1     146.877 135.655  90.761  1.00  0.00     0.085 C 
ENDBRANCH  12  15
ENDBRANCH   1  11
TORSDOF 2
ENDMDL
MODEL 7
REMARK VINA RESULT:    -7.030      4.935      9.311
REMARK INTER + INTRA:          -8.174
REMARK INTER:                  -7.912
REMARK INTRA:                  -0.262
REMARK UNBOUND:                -0.321
REMARK SMILES O=C(N[C@H]1CN2CCC1CC2)c1cc2cccc(Cl)c2s1
REMARK SMILES IDX 12 1 13 2 14 3 20 4 18 5 17 6 16 7 15 8 21 9 19 10 2 11 3 12
REMARK SMILES IDX 1 13 4 15 9 16 5 17 8 18 10 19 6 20 7 21 11 22
REMARK H PARENT 3 14
ROOT
ATOM      1  C   UNL     1     146.492 136.870  91.732  1.00  0.00     0.093 A 
ATOM      2  C   UNL     1     146.249 138.190  91.562  1.00  0.00     0.034 A 
ATOM      3  C   UNL     1     144.921 138.627  91.238  1.00  0.00    -0.005 A 
ATOM      4  C   UNL     1     143.977 137.547  91.135  1.00  0.00     0.054 A 
ATOM      5  C   UNL     1     142.664 137.816  90.831  1.00  0.00     0.058 A 
ATOM      6  C   UNL     1     142.254 139.137  90.624  1.00  0.00     0.022 A 
ATOM      7  C   UNL     1     143.180 140.190  90.724  1.00  0.00     0.002 A 
ATOM      8  C   UNL     1     144.513 139.919  91.033  1.00  0.00     0.010 A 
ATOM      9  S   UNL     1     144.970 136.064  91.481  1.00  0.00    -0.128 S 
ATOM     10  Cl  UNL     1     141.486 136.485  90.700  1.00  0.00    -0.083 Cl
ENDROOT
BRANCH   1  11
ATOM     11  C   UNL     1     147.848 136.245  92.077  1.00  0.00     0.261 C 
ATOM     12  N   UNL     1     149.080 136.962  91.809  1.00  0.00    -0.347 N 
ATOM     13  O   UNL     1     147.890 135.167  92.564  1.00  0.00    -0.268 OA
ATOM     14  H   UNL     1     149.054 137.858  91.402  1.00  0.00     0.164 HD
BRANCH  12  15
ATOM     15  C   UNL     1     150.377 136.335  92.152  1.00  0.00     0.099 C 
ATOM     16  C   UNL     1     151.384 137.366  92.385  1.00  0.00     0.015 C 
ATOM     17  C   UNL     1     150.856 135.448  90.986  1.00  0.00     0.109 C 
ATOM     18  C   UNL     1     152.638 136.725  92.669  1.00  0.00     0.021 C 
ATOM     19  C   UNL     1     151.534 138.148  91.160  1.00  0.00     0.021 C 
ATOM     20  N   UNL     1     152.107 135.860  90.517  1.00  0.00    -0.301 NA
ATOM     21  C   UNL     1     153.035 135.826  91.535  1.00  0.00     0.085 C 
ATOM     22  C   UNL     1     152.015 137.181  90.012  1.00  0.00     0.085 C 
ENDBRANCH  12  15
ENDBRANCH   1  11
TORSDOF 2
ENDMDL
