MODEL 1
REMARK VINA RESULT:    -9.186      0.000      0.000
REMARK INTER + INTRA:         -15.261
REMARK INTER:                 -13.482
REMARK INTRA:                  -1.780
REMARK UNBOUND:                -1.780
REMARK SMILES CN1CCN(CCOc2cc3c(c(OC4CCOCC4)c2)C(Nc2c(Cl)ccc4c2OCO4)N=CN3)CC1
REMARK SMILES IDX 8 1 7 2 6 3 5 4 2 5 3 6 38 7 4 8 37 9 1 10 9 11 21 12 10 13
REMARK SMILES IDX 13 14 11 15 12 16 36 17 22 18 35 19 34 20 14 22 15 23 16 24
REMARK SMILES IDX 20 25 17 26 19 27 18 28 23 29 24 31 30 32 25 33 31 34 29 35
REMARK SMILES IDX 27 36 32 37 33 38 28 39 26 40
REMARK H PARENT 36 21 23 30
ROOT
ATOM      1  O   UNL     1      -9.338  16.262  -6.343  1.00  0.00    -0.492 OA
ENDROOT
BRANCH   1   2
ATOM      2  C   UNL     1      -7.982  15.901  -6.456  1.00  0.00     0.245 C 
BRANCH   2   3
ATOM      3  C   UNL     1      -7.591  14.778  -5.480  1.00  0.00     0.126 C 
BRANCH   3   4
ATOM      4  N   UNL     1      -8.267  14.780  -4.188  1.00  0.00    -0.297 NA
ATOM      5  N   UNL     1      -8.459  13.837  -1.427  1.00  0.00    -0.304 NA
ATOM      6  C   UNL     1      -9.322  13.316  -2.473  1.00  0.00     0.099 C 
ATOM      7  C   UNL     1      -8.076  15.200  -1.748  1.00  0.00     0.099 C 
ATOM      8  C   UNL     1      -8.663  13.414  -3.856  1.00  0.00     0.100 C 
ATOM      9  C   UNL     1      -7.396  15.269  -3.129  1.00  0.00     0.100 C 
ATOM     10  C   UNL     1      -9.138  13.784  -0.144  1.00  0.00     0.105 C 
ENDBRANCH   3   4
ENDBRANCH   2   3
ENDBRANCH   1   2
BRANCH   1  11
ATOM     11  C   UNL     1     -10.116  16.019  -7.448  1.00  0.00     0.125 A 
ATOM     12  C   UNL     1      -9.819  15.040  -8.323  1.00  0.00     0.093 A 
ATOM     13  C   UNL     1     -11.220  16.723  -7.724  1.00  0.00     0.073 A 
ATOM     14  C   UNL     1     -10.544  14.733  -9.423  1.00  0.00     0.132 A 
ATOM     15  C   UNL     1     -11.967  16.461  -8.806  1.00  0.00     0.054 A 
ATOM     16  C   UNL     1     -11.660  15.468  -9.687  1.00  0.00     0.062 A 
ATOM     17  N   UNL     1     -12.982  17.207  -8.944  1.00  0.00    -0.346 N 
ATOM     18  C   UNL     1     -12.505  15.313 -10.747  1.00  0.00     0.236 C 
ATOM     19  C   UNL     1     -13.705  16.987  -9.950  1.00  0.00     0.193 C 
ATOM     20  N   UNL     1     -13.508  16.098 -10.824  1.00  0.00    -0.246 NA
ATOM     21  H   UNL     1     -13.194  17.920  -8.298  1.00  0.00     0.167 HD
BRANCH  14  22
ATOM     22  O   UNL     1     -10.130  13.714 -10.260  1.00  0.00    -0.490 OA
BRANCH  22  23
ATOM     23  C   UNL     1     -10.048  12.371  -9.847  1.00  0.00     0.178 C 
ATOM     24  C   UNL     1     -11.165  11.960  -8.887  1.00  0.00     0.073 C 
ATOM     25  C   UNL     1     -10.150  11.535 -11.132  1.00  0.00     0.073 C 
ATOM     26  C   UNL     1     -11.249  10.443  -8.758  1.00  0.00     0.164 C 
ATOM     27  C   UNL     1     -10.297  10.049 -10.821  1.00  0.00     0.164 C 
ATOM     28  O   UNL     1     -11.428   9.843 -10.018  1.00  0.00    -0.381 OA
ENDBRANCH  22  23
ENDBRANCH  14  22
BRANCH  18  29
ATOM     29  N   UNL     1     -12.544  14.506 -11.742  1.00  0.00    -0.355 N 
ATOM     30  H   UNL     1     -11.626  14.009 -11.886  1.00  0.00     0.163 HD
BRANCH  29  31
ATOM     31  C   UNL     1     -13.392  14.127 -12.623  1.00  0.00     0.102 A 
ATOM     32  C   UNL     1     -13.637  14.782 -13.781  1.00  0.00     0.190 A 
ATOM     33  C   UNL     1     -14.121  12.993 -12.422  1.00  0.00     0.068 A 
ATOM     34  O   UNL     1     -13.109  15.819 -14.188  1.00  0.00    -0.451 OA
ATOM     35  C   UNL     1     -14.542  14.359 -14.672  1.00  0.00     0.168 A 
ATOM     36  C   UNL     1     -15.032  12.575 -13.323  1.00  0.00     0.027 A 
ATOM     37  C   UNL     1     -13.626  16.115 -15.485  1.00  0.00     0.468 C 
ATOM     38  O   UNL     1     -14.607  15.099 -15.653  1.00  0.00    -0.454 OA
ATOM     39  C   UNL     1     -15.255  13.249 -14.460  1.00  0.00     0.052 A 
ATOM     40  Cl  UNL     1     -13.985  11.987 -11.008  1.00  0.00    -0.082 Cl
ENDBRANCH  29  31
ENDBRANCH  18  29
ENDBRANCH   1  11
TORSDOF 8
ENDMDL
MODEL 2
REMARK VINA RESULT:    -9.073      1.554      2.024
REMARK INTER + INTRA:         -15.096
REMARK INTER:                 -13.168
REMARK INTRA:                  -1.928
REMARK UNBOUND:                -1.780
REMARK SMILES CN1CCN(CCOc2cc3c(c(OC4CCOCC4)c2)C(Nc2c(Cl)ccc4c2OCO4)N=CN3)CC1
REMARK SMILES IDX 8 1 7 2 6 3 5 4 2 5 3 6 38 7 4 8 37 9 1 10 9 11 21 12 10 13
REMARK SMILES IDX 13 14 11 15 12 16 36 17 22 18 35 19 34 20 14 22 15 23 16 24
REMARK SMILES IDX 20 25 17 26 19 27 18 28 23 29 24 31 30 32 25 33 31 34 29 35
REMARK SMILES IDX 27 36 32 37 33 38 28 39 26 40
REMARK H PARENT 36 21 23 30
ROOT
ATOM      1  O   UNL     1      -9.266  16.136  -6.204  1.00  0.00    -0.492 OA
ENDROOT
BRANCH   1   2
ATOM      2  C   UNL     1      -7.895  15.837  -6.321  1.00  0.00     0.245 C 
BRANCH   2   3
ATOM      3  C   UNL     1      -7.419  14.838  -5.253  1.00  0.00     0.126 C 
BRANCH   3   4
ATOM      4  N   UNL     1      -8.157  14.836  -3.994  1.00  0.00    -0.297 NA
ATOM      5  N   UNL     1      -8.532  13.823  -1.278  1.00  0.00    -0.304 NA
ATOM      6  C   UNL     1      -9.368  13.379  -2.380  1.00  0.00     0.099 C 
ATOM      7  C   UNL     1      -8.064  15.172  -1.536  1.00  0.00     0.099 C 
ATOM      8  C   UNL     1      -8.638  13.484  -3.727  1.00  0.00     0.100 C 
ATOM      9  C   UNL     1      -7.315  15.247  -2.880  1.00  0.00     0.100 C 
ATOM     10  C   UNL     1      -9.274  13.767  -0.031  1.00  0.00     0.105 C 
ENDBRANCH   3   4
ENDBRANCH   2   3
ENDBRANCH   1   2
BRANCH   1  11
ATOM     11  C   UNL     1     -10.023  15.920  -7.329  1.00  0.00     0.125 A 
ATOM     12  C   UNL     1      -9.700  14.975  -8.231  1.00  0.00     0.093 A 
ATOM     13  C   UNL     1     -11.132  16.619  -7.598  1.00  0.00     0.073 A 
ATOM     14  C   UNL     1     -10.404  14.696  -9.352  1.00  0.00     0.132 A 
ATOM     15  C   UNL     1     -11.859  16.383  -8.700  1.00  0.00     0.054 A 
ATOM     16  C   UNL     1     -11.526  15.424  -9.608  1.00  0.00     0.062 A 
ATOM     17  N   UNL     1     -12.882  17.120  -8.828  1.00  0.00    -0.346 N 
ATOM     18  C   UNL     1     -12.352  15.294 -10.686  1.00  0.00     0.236 C 
ATOM     19  C   UNL     1     -13.586  16.925  -9.853  1.00  0.00     0.193 C 
ATOM     20  N   UNL     1     -13.365  16.069 -10.753  1.00  0.00    -0.246 NA
ATOM     21  H   UNL     1     -13.114  17.809  -8.163  1.00  0.00     0.167 HD
BRANCH  14  22
ATOM     22  O   UNL     1      -9.963  13.711 -10.216  1.00  0.00    -0.490 OA
BRANCH  22  23
ATOM     23  C   UNL     1      -9.836  12.362  -9.835  1.00  0.00     0.178 C 
ATOM     24  C   UNL     1     -10.899  11.908  -8.833  1.00  0.00     0.073 C 
ATOM     25  C   UNL     1      -9.983  11.550 -11.133  1.00  0.00     0.073 C 
ATOM     26  C   UNL     1     -10.947  10.387  -8.734  1.00  0.00     0.164 C 
ATOM     27  C   UNL     1     -10.086  10.055 -10.846  1.00  0.00     0.164 C 
ATOM     28  O   UNL     1     -11.174   9.809  -9.996  1.00  0.00    -0.381 OA
ENDBRANCH  22  23
ENDBRANCH  14  22
BRANCH  18  29
ATOM     29  N   UNL     1     -12.365  14.521 -11.708  1.00  0.00    -0.355 N 
ATOM     30  H   UNL     1     -11.407  14.408 -12.133  1.00  0.00     0.163 HD
BRANCH  29  31
ATOM     31  C   UNL     1     -13.222  13.837 -12.369  1.00  0.00     0.102 A 
ATOM     32  C   UNL     1     -13.742  12.658 -11.957  1.00  0.00     0.190 A 
ATOM     33  C   UNL     1     -13.669  14.288 -13.576  1.00  0.00     0.068 A 
ATOM     34  O   UNL     1     -13.501  12.051 -10.911  1.00  0.00    -0.451 OA
ATOM     35  C   UNL     1     -14.629  11.967 -12.684  1.00  0.00     0.168 A 
ATOM     36  C   UNL     1     -14.560  13.584 -14.301  1.00  0.00     0.027 A 
ATOM     37  C   UNL     1     -14.321  10.884 -10.862  1.00  0.00     0.468 C 
ATOM     38  O   UNL     1     -14.972  10.925 -12.126  1.00  0.00    -0.454 OA
ATOM     39  C   UNL     1     -15.054  12.417 -13.867  1.00  0.00     0.052 A 
ATOM     40  Cl  UNL     1     -13.142  15.774 -14.314  1.00  0.00    -0.082 Cl
ENDBRANCH  29  31
ENDBRANCH  18  29
ENDBRANCH   1  11
TORSDOF 8
ENDMDL
MODEL 3
REMARK VINA RESULT:    -8.900      1.549      2.400
REMARK INTER + INTRA:         -14.842
REMARK INTER:                 -12.775
REMARK INTRA:                  -2.067
REMARK UNBOUND:                -1.780
REMARK SMILES CN1CCN(CCOc2cc3c(c(OC4CCOCC4)c2)C(Nc2c(Cl)ccc4c2OCO4)N=CN3)CC1
REMARK SMILES IDX 8 1 7 2 6 3 5 4 2 5 3 6 38 7 4 8 37 9 1 10 9 11 21 12 10 13
REMARK SMILES IDX 13 14 11 15 12 16 36 17 22 18 35 19 34 20 14 22 15 23 16 24
REMARK SMILES IDX 20 25 17 26 19 27 18 28 23 29 24 31 30 32 25 33 31 34 29 35
REMARK SMILES IDX 27 36 32 37 33 38 28 39 26 40
REMARK H PARENT 36 21 23 30
ROOT
ATOM      1  O   UNL     1      -9.644  16.068  -6.556  1.00  0.00    -0.492 OA
ENDROOT
BRANCH   1   2
ATOM      2  C   UNL     1      -8.402  15.406  -6.523  1.00  0.00     0.245 C 
BRANCH   2   3
ATOM      3  C   UNL     1      -8.241  14.521  -5.276  1.00  0.00     0.126 C 
BRANCH   3   4
ATOM      4  N   UNL     1      -7.950  13.112  -5.517  1.00  0.00    -0.297 NA
ATOM      5  N   UNL     1      -7.402  10.918  -7.369  1.00  0.00    -0.304 NA
ATOM      6  C   UNL     1      -8.707  11.089  -6.755  1.00  0.00     0.099 C 
ATOM      7  C   UNL     1      -6.378  11.456  -6.492  1.00  0.00     0.099 C 
ATOM      8  C   UNL     1      -8.977  12.557  -6.393  1.00  0.00     0.100 C 
ATOM      9  C   UNL     1      -6.658  12.935  -6.163  1.00  0.00     0.100 C 
ATOM     10  C   UNL     1      -7.157   9.512  -7.641  1.00  0.00     0.105 C 
ENDBRANCH   3   4
ENDBRANCH   2   3
ENDBRANCH   1   2
BRANCH   1  11
ATOM     11  C   UNL     1     -10.401  15.866  -7.684  1.00  0.00     0.125 A 
ATOM     12  C   UNL     1     -10.102  14.902  -8.575  1.00  0.00     0.093 A 
ATOM     13  C   UNL     1     -11.486  16.595  -7.966  1.00  0.00     0.073 A 
ATOM     14  C   UNL     1     -10.807  14.635  -9.698  1.00  0.00     0.132 A 
ATOM     15  C   UNL     1     -12.213  16.372  -9.071  1.00  0.00     0.054 A 
ATOM     16  C   UNL     1     -11.904  15.395  -9.968  1.00  0.00     0.062 A 
ATOM     17  N   UNL     1     -13.212  17.139  -9.213  1.00  0.00    -0.346 N 
ATOM     18  C   UNL     1     -12.727  15.280 -11.051  1.00  0.00     0.236 C 
ATOM     19  C   UNL     1     -13.915  16.956 -10.240  1.00  0.00     0.193 C 
ATOM     20  N   UNL     1     -13.714  16.085 -11.130  1.00  0.00    -0.246 NA
ATOM     21  H   UNL     1     -13.426  17.841  -8.555  1.00  0.00     0.167 HD
BRANCH  14  22
ATOM     22  O   UNL     1     -10.391  13.628 -10.550  1.00  0.00    -0.490 OA
BRANCH  22  23
ATOM     23  C   UNL     1     -10.299  12.281 -10.153  1.00  0.00     0.178 C 
ATOM     24  C   UNL     1     -11.423  11.844  -9.213  1.00  0.00     0.073 C 
ATOM     25  C   UNL     1     -10.375  11.461 -11.451  1.00  0.00     0.073 C 
ATOM     26  C   UNL     1     -11.491  10.324  -9.106  1.00  0.00     0.164 C 
ATOM     27  C   UNL     1     -10.509   9.969 -11.162  1.00  0.00     0.164 C 
ATOM     28  O   UNL     1     -11.647   9.739 -10.376  1.00  0.00    -0.381 OA
ENDBRANCH  22  23
ENDBRANCH  14  22
BRANCH  18  29
ATOM     29  N   UNL     1     -12.758  14.498 -12.066  1.00  0.00    -0.355 N 
ATOM     30  H   UNL     1     -11.827  14.033 -12.236  1.00  0.00     0.163 HD
BRANCH  29  31
ATOM     31  C   UNL     1     -13.608  14.116 -12.943  1.00  0.00     0.102 A 
ATOM     32  C   UNL     1     -13.849  14.761 -14.107  1.00  0.00     0.190 A 
ATOM     33  C   UNL     1     -14.344  12.988 -12.731  1.00  0.00     0.068 A 
ATOM     34  O   UNL     1     -13.314  15.791 -14.524  1.00  0.00    -0.451 OA
ATOM     35  C   UNL     1     -14.757  14.335 -14.994  1.00  0.00     0.168 A 
ATOM     36  C   UNL     1     -15.257  12.567 -13.628  1.00  0.00     0.027 A 
ATOM     37  C   UNL     1     -13.829  16.077 -15.823  1.00  0.00     0.468 C 
ATOM     38  O   UNL     1     -14.817  15.066 -15.982  1.00  0.00    -0.454 OA
ATOM     39  C   UNL     1     -15.476  13.231 -14.772  1.00  0.00     0.052 A 
ATOM     40  Cl  UNL     1     -14.214  11.995 -11.307  1.00  0.00    -0.082 Cl
ENDBRANCH  29  31
ENDBRANCH  18  29
ENDBRANCH   1  11
TORSDOF 8
ENDMDL
MODEL 4
REMARK VINA RESULT:    -8.880      1.756      2.534
REMARK INTER + INTRA:         -14.813
REMARK INTER:                 -12.893
REMARK INTRA:                  -1.921
REMARK UNBOUND:                -1.780
REMARK SMILES CN1CCN(CCOc2cc3c(c(OC4CCOCC4)c2)C(Nc2c(Cl)ccc4c2OCO4)N=CN3)CC1
REMARK SMILES IDX 8 1 7 2 6 3 5 4 2 5 3 6 38 7 4 8 37 9 1 10 9 11 21 12 10 13
REMARK SMILES IDX 13 14 11 15 12 16 36 17 22 18 35 19 34 20 14 22 15 23 16 24
REMARK SMILES IDX 20 25 17 26 19 27 18 28 23 29 24 31 30 32 25 33 31 34 29 35
REMARK SMILES IDX 27 36 32 37 33 38 28 39 26 40
REMARK H PARENT 36 21 23 30
ROOT
ATOM      1  O   UNL     1     -10.136  12.659  -6.509  1.00  0.00    -0.492 OA
ENDROOT
BRANCH   1   2
ATOM      2  C   UNL     1      -8.801  12.217  -6.573  1.00  0.00     0.245 C 
BRANCH   2   3
ATOM      3  C   UNL     1      -7.834  13.161  -5.841  1.00  0.00     0.126 C 
BRANCH   3   4
ATOM      4  N   UNL     1      -8.315  14.516  -5.595  1.00  0.00    -0.297 NA
ATOM      5  N   UNL     1      -7.827  17.256  -4.702  1.00  0.00    -0.304 NA
ATOM      6  C   UNL     1      -8.514  16.292  -3.862  1.00  0.00     0.099 C 
ATOM      7  C   UNL     1      -8.054  16.933  -6.099  1.00  0.00     0.099 C 
ATOM      8  C   UNL     1      -8.098  14.851  -4.191  1.00  0.00     0.100 C 
ATOM      9  C   UNL     1      -7.606  15.492  -6.410  1.00  0.00     0.100 C 
ATOM     10  C   UNL     1      -8.290  18.601  -4.405  1.00  0.00     0.105 C 
ENDBRANCH   3   4
ENDBRANCH   2   3
ENDBRANCH   1   2
BRANCH   1  11
ATOM     11  C   UNL     1     -10.683  13.083  -7.695  1.00  0.00     0.125 A 
ATOM     12  C   UNL     1     -10.813  12.259  -8.751  1.00  0.00     0.093 A 
ATOM     13  C   UNL     1     -11.134  14.330  -7.878  1.00  0.00     0.073 A 
ATOM     14  C   UNL     1     -11.354  12.600  -9.943  1.00  0.00     0.132 A 
ATOM     15  C   UNL     1     -11.672  14.717  -9.044  1.00  0.00     0.054 A 
ATOM     16  C   UNL     1     -11.800  13.876 -10.108  1.00  0.00     0.062 A 
ATOM     17  N   UNL     1     -12.054  15.925  -9.077  1.00  0.00    -0.346 N 
ATOM     18  C   UNL     1     -12.361  14.403 -11.235  1.00  0.00     0.236 C 
ATOM     19  C   UNL     1     -12.563  16.320 -10.158  1.00  0.00     0.193 C 
ATOM     20  N   UNL     1     -12.725  15.626 -11.199  1.00  0.00    -0.246 NA
ATOM     21  H   UNL     1     -11.958  16.521  -8.300  1.00  0.00     0.167 HD
BRANCH  14  22
ATOM     22  O   UNL     1     -11.418  11.669 -10.963  1.00  0.00    -0.490 OA
BRANCH  22  23
ATOM     23  C   UNL     1     -10.851  10.386 -10.863  1.00  0.00     0.178 C 
ATOM     24  C   UNL     1     -11.880   9.257 -10.927  1.00  0.00     0.073 C 
ATOM     25  C   UNL     1      -9.889  10.263 -12.057  1.00  0.00     0.073 C 
ATOM     26  C   UNL     1     -11.208   7.912 -11.179  1.00  0.00     0.164 C 
ATOM     27  C   UNL     1      -9.363   8.840 -12.206  1.00  0.00     0.164 C 
ATOM     28  O   UNL     1     -10.437   7.950 -12.356  1.00  0.00    -0.381 OA
ENDBRANCH  22  23
ENDBRANCH  14  22
BRANCH  18  29
ATOM     29  N   UNL     1     -12.644  13.929 -12.392  1.00  0.00    -0.355 N 
ATOM     30  H   UNL     1     -11.812  13.470 -12.847  1.00  0.00     0.163 HD
BRANCH  29  31
ATOM     31  C   UNL     1     -13.664  13.855 -13.163  1.00  0.00     0.102 A 
ATOM     32  C   UNL     1     -13.886  14.673 -14.217  1.00  0.00     0.190 A 
ATOM     33  C   UNL     1     -14.615  12.904 -12.944  1.00  0.00     0.068 A 
ATOM     34  O   UNL     1     -13.177  15.599 -14.618  1.00  0.00    -0.451 OA
ATOM     35  C   UNL     1     -14.972  14.571 -14.994  1.00  0.00     0.168 A 
ATOM     36  C   UNL     1     -15.707  12.810 -13.729  1.00  0.00     0.027 A 
ATOM     37  C   UNL     1     -13.766  16.148 -15.796  1.00  0.00     0.468 C 
ATOM     38  O   UNL     1     -14.979  15.410 -15.893  1.00  0.00    -0.454 OA
ATOM     39  C   UNL     1     -15.901  13.638 -14.765  1.00  0.00     0.052 A 
ATOM     40  Cl  UNL     1     -14.550  11.743 -11.649  1.00  0.00    -0.082 Cl
ENDBRANCH  29  31
ENDBRANCH  18  29
ENDBRANCH   1  11
TORSDOF 8
ENDMDL
MODEL 5
REMARK VINA RESULT:    -8.864      1.922      2.654
REMARK INTER + INTRA:         -14.789
REMARK INTER:                 -13.154
REMARK INTRA:                  -1.635
REMARK UNBOUND:                -1.780
REMARK SMILES CN1CCN(CCOc2cc3c(c(OC4CCOCC4)c2)C(Nc2c(Cl)ccc4c2OCO4)N=CN3)CC1
REMARK SMILES IDX 8 1 7 2 6 3 5 4 2 5 3 6 38 7 4 8 37 9 1 10 9 11 21 12 10 13
REMARK SMILES IDX 13 14 11 15 12 16 36 17 22 18 35 19 34 20 14 22 15 23 16 24
REMARK SMILES IDX 20 25 17 26 19 27 18 28 23 29 24 31 30 32 25 33 31 34 29 35
REMARK SMILES IDX 27 36 32 37 33 38 28 39 26 40
REMARK H PARENT 36 21 23 30
ROOT
ATOM      1  O   UNL     1      -9.344  16.231  -6.300  1.00  0.00    -0.492 OA
ENDROOT
BRANCH   1   2
ATOM      2  C   UNL     1      -7.950  16.164  -6.488  1.00  0.00     0.245 C 
BRANCH   2   3
ATOM      3  C   UNL     1      -7.174  16.236  -5.162  1.00  0.00     0.126 C 
BRANCH   3   4
ATOM      4  N   UNL     1      -6.940  17.571  -4.623  1.00  0.00    -0.297 NA
ATOM      5  N   UNL     1      -7.677  20.394  -4.435  1.00  0.00    -0.304 NA
ATOM      6  C   UNL     1      -6.559  19.950  -5.249  1.00  0.00     0.099 C 
ATOM      7  C   UNL     1      -7.865  19.476  -3.326  1.00  0.00     0.099 C 
ATOM      8  C   UNL     1      -6.743  18.504  -5.729  1.00  0.00     0.100 C 
ATOM      9  C   UNL     1      -8.072  18.036  -3.834  1.00  0.00     0.100 C 
ATOM     10  C   UNL     1      -7.440  21.742  -3.949  1.00  0.00     0.105 C 
ENDBRANCH   3   4
ENDBRANCH   2   3
ENDBRANCH   1   2
BRANCH   1  11
ATOM     11  C   UNL     1     -10.111  15.987  -7.412  1.00  0.00     0.125 A 
ATOM     12  C   UNL     1      -9.799  15.015  -8.290  1.00  0.00     0.093 A 
ATOM     13  C   UNL     1     -11.219  16.683  -7.693  1.00  0.00     0.073 A 
ATOM     14  C   UNL     1     -10.512  14.707  -9.397  1.00  0.00     0.132 A 
ATOM     15  C   UNL     1     -11.955  16.419  -8.782  1.00  0.00     0.054 A 
ATOM     16  C   UNL     1     -11.633  15.433  -9.665  1.00  0.00     0.062 A 
ATOM     17  N   UNL     1     -12.976  17.157  -8.924  1.00  0.00    -0.346 N 
ATOM     18  C   UNL     1     -12.467  15.276 -10.733  1.00  0.00     0.236 C 
ATOM     19  C   UNL     1     -13.688  16.935  -9.937  1.00  0.00     0.193 C 
ATOM     20  N   UNL     1     -13.477  16.053 -10.814  1.00  0.00    -0.246 NA
ATOM     21  H   UNL     1     -13.199  17.865  -8.277  1.00  0.00     0.167 HD
BRANCH  14  22
ATOM     22  O   UNL     1     -10.082  13.696 -10.235  1.00  0.00    -0.490 OA
BRANCH  22  23
ATOM     23  C   UNL     1      -9.971  12.355  -9.821  1.00  0.00     0.178 C 
ATOM     24  C   UNL     1     -11.047  11.935  -8.820  1.00  0.00     0.073 C 
ATOM     25  C   UNL     1     -10.111  11.513 -11.100  1.00  0.00     0.073 C 
ATOM     26  C   UNL     1     -11.109  10.417  -8.684  1.00  0.00     0.164 C 
ATOM     27  C   UNL     1     -10.230  10.027 -10.779  1.00  0.00     0.164 C 
ATOM     28  O   UNL     1     -11.328   9.811  -9.934  1.00  0.00    -0.381 OA
ENDBRANCH  22  23
ENDBRANCH  14  22
BRANCH  18  29
ATOM     29  N   UNL     1     -12.492  14.474 -11.733  1.00  0.00    -0.355 N 
ATOM     30  H   UNL     1     -11.557  14.016 -11.897  1.00  0.00     0.163 HD
BRANCH  29  31
ATOM     31  C   UNL     1     -13.340  14.065 -12.600  1.00  0.00     0.102 A 
ATOM     32  C   UNL     1     -13.618  14.704 -13.759  1.00  0.00     0.190 A 
ATOM     33  C   UNL     1     -14.034  12.912 -12.382  1.00  0.00     0.068 A 
ATOM     34  O   UNL     1     -13.124  15.753 -14.180  1.00  0.00    -0.451 OA
ATOM     35  C   UNL     1     -14.522  14.249 -14.636  1.00  0.00     0.168 A 
ATOM     36  C   UNL     1     -14.944  12.463 -13.269  1.00  0.00     0.027 A 
ATOM     37  C   UNL     1     -13.665  16.025 -15.472  1.00  0.00     0.468 C 
ATOM     38  O   UNL     1     -14.619  14.980 -15.620  1.00  0.00    -0.454 OA
ATOM     39  C   UNL     1     -15.200  13.121 -14.408  1.00  0.00     0.052 A 
ATOM     40  Cl  UNL     1     -13.852  11.920 -10.963  1.00  0.00    -0.082 Cl
ENDBRANCH  29  31
ENDBRANCH  18  29
ENDBRANCH   1  11
TORSDOF 8
ENDMDL
MODEL 6
REMARK VINA RESULT:    -8.848      2.069      3.073
REMARK INTER + INTRA:         -14.766
REMARK INTER:                 -12.415
REMARK INTRA:                  -2.351
REMARK UNBOUND:                -1.780
REMARK SMILES CN1CCN(CCOc2cc3c(c(OC4CCOCC4)c2)C(Nc2c(Cl)ccc4c2OCO4)N=CN3)CC1
REMARK SMILES IDX 8 1 7 2 6 3 5 4 2 5 3 6 38 7 4 8 37 9 1 10 9 11 21 12 10 13
REMARK SMILES IDX 13 14 11 15 12 16 36 17 22 18 35 19 34 20 14 22 15 23 16 24
REMARK SMILES IDX 20 25 17 26 19 27 18 28 23 29 24 31 30 32 25 33 31 34 29 35
REMARK SMILES IDX 27 36 32 37 33 38 28 39 26 40
REMARK H PARENT 36 21 23 30
ROOT
ATOM      1  O   UNL     1      -9.377  16.312  -6.242  1.00  0.00    -0.492 OA
ENDROOT
BRANCH   1   2
ATOM      2  C   UNL     1      -8.178  15.585  -6.125  1.00  0.00     0.245 C 
BRANCH   2   3
ATOM      3  C   UNL     1      -8.228  14.549  -4.989  1.00  0.00     0.126 C 
BRANCH   3   4
ATOM      4  N   UNL     1      -7.873  13.180  -5.346  1.00  0.00    -0.297 NA
ATOM      5  N   UNL     1      -7.540  11.093  -7.365  1.00  0.00    -0.304 NA
ATOM      6  C   UNL     1      -8.695  11.126  -6.486  1.00  0.00     0.099 C 
ATOM      7  C   UNL     1      -6.404  11.704  -6.698  1.00  0.00     0.099 C 
ATOM      8  C   UNL     1      -9.010  12.552  -6.012  1.00  0.00     0.100 C 
ATOM      9  C   UNL     1      -6.737  13.142  -6.254  1.00  0.00     0.100 C 
ATOM     10  C   UNL     1      -7.236   9.723  -7.743  1.00  0.00     0.105 C 
ENDBRANCH   3   4
ENDBRANCH   2   3
ENDBRANCH   1   2
BRANCH   1  11
ATOM     11  C   UNL     1     -10.120  16.063  -7.371  1.00  0.00     0.125 A 
ATOM     12  C   UNL     1      -9.769  15.110  -8.255  1.00  0.00     0.093 A 
ATOM     13  C   UNL     1     -11.241  16.734  -7.660  1.00  0.00     0.073 A 
ATOM     14  C   UNL     1     -10.457  14.799  -9.377  1.00  0.00     0.132 A 
ATOM     15  C   UNL     1     -11.952  16.466  -8.765  1.00  0.00     0.054 A 
ATOM     16  C   UNL     1     -11.591  15.500  -9.655  1.00  0.00     0.062 A 
ATOM     17  N   UNL     1     -12.989  17.179  -8.914  1.00  0.00    -0.346 N 
ATOM     18  C   UNL     1     -12.404  15.336 -10.738  1.00  0.00     0.236 C 
ATOM     19  C   UNL     1     -13.680  16.953  -9.942  1.00  0.00     0.193 C 
ATOM     20  N   UNL     1     -13.432  16.088 -10.826  1.00  0.00    -0.246 NA
ATOM     21  H   UNL     1     -13.241  17.873  -8.262  1.00  0.00     0.167 HD
BRANCH  14  22
ATOM     22  O   UNL     1      -9.988  13.810 -10.221  1.00  0.00    -0.490 OA
BRANCH  22  23
ATOM     23  C   UNL     1      -9.897  12.459  -9.839  1.00  0.00     0.178 C 
ATOM     24  C   UNL     1     -11.126  11.956  -9.081  1.00  0.00     0.073 C 
ATOM     25  C   UNL     1      -9.749  11.666 -11.148  1.00  0.00     0.073 C 
ATOM     26  C   UNL     1     -11.144  10.432  -9.011  1.00  0.00     0.164 C 
ATOM     27  C   UNL     1      -9.859  10.165 -10.907  1.00  0.00     0.164 C 
ATOM     28  O   UNL     1     -11.089   9.871 -10.300  1.00  0.00    -0.381 OA
ENDBRANCH  22  23
ENDBRANCH  14  22
BRANCH  18  29
ATOM     29  N   UNL     1     -12.392  14.546 -11.748  1.00  0.00    -0.355 N 
ATOM     30  H   UNL     1     -11.418  14.392 -12.119  1.00  0.00     0.163 HD
BRANCH  29  31
ATOM     31  C   UNL     1     -13.238  13.883 -12.443  1.00  0.00     0.102 A 
ATOM     32  C   UNL     1     -13.788  12.708 -12.061  1.00  0.00     0.190 A 
ATOM     33  C   UNL     1     -13.638  14.354 -13.658  1.00  0.00     0.068 A 
ATOM     34  O   UNL     1     -13.591  12.086 -11.015  1.00  0.00    -0.451 OA
ATOM     35  C   UNL     1     -14.662  12.038 -12.823  1.00  0.00     0.168 A 
ATOM     36  C   UNL     1     -14.516  13.671 -14.420  1.00  0.00     0.027 A 
ATOM     37  C   UNL     1     -14.430  10.932 -11.004  1.00  0.00     0.468 C 
ATOM     38  O   UNL     1     -15.039  10.996 -12.289  1.00  0.00    -0.454 OA
ATOM     39  C   UNL     1     -15.042  12.507 -14.015  1.00  0.00     0.052 A 
ATOM     40  Cl  UNL     1     -13.065  15.838 -14.363  1.00  0.00    -0.082 Cl
ENDBRANCH  29  31
ENDBRANCH  18  29
ENDBRANCH   1  11
TORSDOF 8
ENDMDL
MODEL 7
REMARK VINA RESULT:    -8.839      2.995      3.963
REMARK INTER + INTRA:         -14.753
REMARK INTER:                 -12.944
REMARK INTRA:                  -1.809
REMARK UNBOUND:                -1.780
REMARK SMILES CN1CCN(CCOc2cc3c(c(OC4CCOCC4)c2)C(Nc2c(Cl)ccc4c2OCO4)N=CN3)CC1
REMARK SMILES IDX 8 1 7 2 6 3 5 4 2 5 3 6 38 7 4 8 37 9 1 10 9 11 21 12 10 13
REMARK SMILES IDX 13 14 11 15 12 16 36 17 22 18 35 19 34 20 14 22 15 23 16 24
REMARK SMILES IDX 20 25 17 26 19 27 18 28 23 29 24 31 30 32 25 33 31 34 29 35
REMARK SMILES IDX 27 36 32 37 33 38 28 39 26 40
REMARK H PARENT 36 21 23 30
ROOT
ATOM      1  O   UNL     1     -10.606  16.022  -8.096  1.00  0.00    -0.492 OA
ENDROOT
BRANCH   1   2
ATOM      2  C   UNL     1      -9.628  15.024  -7.927  1.00  0.00     0.245 C 
BRANCH   2   3
ATOM      3  C   UNL     1     -10.172  13.789  -7.189  1.00  0.00     0.126 C 
BRANCH   3   4
ATOM      4  N   UNL     1      -9.769  12.490  -7.719  1.00  0.00    -0.297 NA
ATOM      5  N   UNL     1      -9.639   9.581  -7.470  1.00  0.00    -0.304 NA
ATOM      6  C   UNL     1      -8.486  10.421  -7.201  1.00  0.00     0.099 C 
ATOM      7  C   UNL     1     -10.497  10.230  -8.444  1.00  0.00     0.099 C 
ATOM      8  C   UNL     1      -8.900  11.830  -6.750  1.00  0.00     0.100 C 
ATOM      9  C   UNL     1     -10.919  11.630  -7.959  1.00  0.00     0.100 C 
ATOM     10  C   UNL     1      -9.210   8.279  -7.951  1.00  0.00     0.105 C 
ENDBRANCH   3   4
ENDBRANCH   2   3
ENDBRANCH   1   2
BRANCH   1  11
ATOM     11  C   UNL     1     -11.522  15.799  -9.095  1.00  0.00     0.125 A 
ATOM     12  C   UNL     1     -11.413  14.754  -9.937  1.00  0.00     0.093 A 
ATOM     13  C   UNL     1     -12.583  16.590  -9.292  1.00  0.00     0.073 A 
ATOM     14  C   UNL     1     -12.281  14.463 -10.932  1.00  0.00     0.132 A 
ATOM     15  C   UNL     1     -13.467  16.346 -10.270  1.00  0.00     0.054 A 
ATOM     16  C   UNL     1     -13.350  15.286 -11.118  1.00  0.00     0.062 A 
ATOM     17  N   UNL     1     -14.421  17.177 -10.343  1.00  0.00    -0.346 N 
ATOM     18  C   UNL     1     -14.319  15.159 -12.071  1.00  0.00     0.236 C 
ATOM     19  C   UNL     1     -15.269  16.977 -11.251  1.00  0.00     0.193 C 
ATOM     20  N   UNL     1     -15.251  16.031 -12.086  1.00  0.00    -0.246 NA
ATOM     21  H   UNL     1     -14.495  17.938  -9.722  1.00  0.00     0.167 HD
BRANCH  14  22
ATOM     22  O   UNL     1     -12.055  13.369 -11.746  1.00  0.00    -0.490 OA
BRANCH  22  23
ATOM     23  C   UNL     1     -12.057  12.046 -11.267  1.00  0.00     0.178 C 
ATOM     24  C   UNL     1     -13.456  11.512 -10.957  1.00  0.00     0.073 C 
ATOM     25  C   UNL     1     -11.426  11.199 -12.384  1.00  0.00     0.073 C 
ATOM     26  C   UNL     1     -13.443   9.995 -10.796  1.00  0.00     0.164 C 
ATOM     27  C   UNL     1     -11.560   9.707 -12.096  1.00  0.00     0.164 C 
ATOM     28  O   UNL     1     -12.913   9.374 -11.942  1.00  0.00    -0.381 OA
ENDBRANCH  22  23
ENDBRANCH  14  22
BRANCH  18  29
ATOM     29  N   UNL     1     -14.541  14.311 -13.006  1.00  0.00    -0.355 N 
ATOM     30  H   UNL     1     -14.437  13.317 -12.673  1.00  0.00     0.163 HD
BRANCH  29  31
ATOM     31  C   UNL     1     -14.857  14.328 -14.247  1.00  0.00     0.102 A 
ATOM     32  C   UNL     1     -15.939  13.707 -14.769  1.00  0.00     0.190 A 
ATOM     33  C   UNL     1     -14.078  15.005 -15.138  1.00  0.00     0.068 A 
ATOM     34  O   UNL     1     -16.788  13.042 -14.173  1.00  0.00    -0.451 OA
ATOM     35  C   UNL     1     -16.229  13.740 -16.076  1.00  0.00     0.168 A 
ATOM     36  C   UNL     1     -14.376  15.030 -16.452  1.00  0.00     0.027 A 
ATOM     37  C   UNL     1     -17.784  12.629 -15.109  1.00  0.00     0.468 C 
ATOM     38  O   UNL     1     -17.253  13.112 -16.338  1.00  0.00    -0.454 OA
ATOM     39  C   UNL     1     -15.454  14.401 -16.940  1.00  0.00     0.052 A 
ATOM     40  Cl  UNL     1     -12.634  15.875 -14.704  1.00  0.00    -0.082 Cl
ENDBRANCH  29  31
ENDBRANCH  18  29
ENDBRANCH   1  11
TORSDOF 8
ENDMDL
MODEL 8
REMARK VINA RESULT:    -8.761      2.691      3.678
REMARK INTER + INTRA:         -14.639
REMARK INTER:                 -12.879
REMARK INTRA:                  -1.759
REMARK UNBOUND:                -1.780
REMARK SMILES CN1CCN(CCOc2cc3c(c(OC4CCOCC4)c2)C(Nc2c(Cl)ccc4c2OCO4)N=CN3)CC1
REMARK SMILES IDX 8 1 7 2 6 3 5 4 2 5 3 6 38 7 4 8 37 9 1 10 9 11 21 12 10 13
REMARK SMILES IDX 13 14 11 15 12 16 36 17 22 18 35 19 34 20 14 22 15 23 16 24
REMARK SMILES IDX 20 25 17 26 19 27 18 28 23 29 24 31 30 32 25 33 31 34 29 35
REMARK SMILES IDX 27 36 32 37 33 38 28 39 26 40
REMARK H PARENT 36 21 23 30
ROOT
ATOM      1  O   UNL     1      -9.288  16.145  -6.166  1.00  0.00    -0.492 OA
ENDROOT
BRANCH   1   2
ATOM      2  C   UNL     1      -8.296  17.140  -6.258  1.00  0.00     0.245 C 
BRANCH   2   3
ATOM      3  C   UNL     1      -7.429  17.223  -4.990  1.00  0.00     0.126 C 
BRANCH   3   4
ATOM      4  N   UNL     1      -7.118  18.564  -4.506  1.00  0.00    -0.297 NA
ATOM      5  N   UNL     1      -7.508  21.458  -4.634  1.00  0.00    -0.304 NA
ATOM      6  C   UNL     1      -6.337  20.820  -5.208  1.00  0.00     0.099 C 
ATOM      7  C   UNL     1      -7.995  20.666  -3.519  1.00  0.00     0.099 C 
ATOM      8  C   UNL     1      -6.622  19.368  -5.619  1.00  0.00     0.100 C 
ATOM      9  C   UNL     1      -8.296  19.222  -3.960  1.00  0.00     0.100 C 
ATOM     10  C   UNL     1      -7.185  22.807  -4.203  1.00  0.00     0.105 C 
ENDBRANCH   3   4
ENDBRANCH   2   3
ENDBRANCH   1   2
BRANCH   1  11
ATOM     11  C   UNL     1     -10.037  15.942  -7.299  1.00  0.00     0.125 A 
ATOM     12  C   UNL     1      -9.721  14.990  -8.197  1.00  0.00     0.093 A 
ATOM     13  C   UNL     1     -11.131  16.658  -7.579  1.00  0.00     0.073 A 
ATOM     14  C   UNL     1     -10.418  14.722  -9.325  1.00  0.00     0.132 A 
ATOM     15  C   UNL     1     -11.851  16.434  -8.689  1.00  0.00     0.054 A 
ATOM     16  C   UNL     1     -11.524  15.469  -9.593  1.00  0.00     0.062 A 
ATOM     17  N   UNL     1     -12.860  17.188  -8.829  1.00  0.00    -0.346 N 
ATOM     18  C   UNL     1     -12.341  15.352 -10.680  1.00  0.00     0.236 C 
ATOM     19  C   UNL     1     -13.556  17.004  -9.860  1.00  0.00     0.193 C 
ATOM     20  N   UNL     1     -13.340  16.143 -10.757  1.00  0.00    -0.246 NA
ATOM     21  H   UNL     1     -13.086  17.881  -8.166  1.00  0.00     0.167 HD
BRANCH  14  22
ATOM     22  O   UNL     1      -9.985  13.728 -10.183  1.00  0.00    -0.490 OA
BRANCH  22  23
ATOM     23  C   UNL     1      -9.844  12.385  -9.788  1.00  0.00     0.178 C 
ATOM     24  C   UNL     1     -10.966  11.898  -8.871  1.00  0.00     0.073 C 
ATOM     25  C   UNL     1      -9.861  11.567 -11.090  1.00  0.00     0.073 C 
ATOM     26  C   UNL     1     -10.973  10.377  -8.769  1.00  0.00     0.164 C 
ATOM     27  C   UNL     1      -9.937  10.070 -10.807  1.00  0.00     0.164 C 
ATOM     28  O   UNL     1     -11.080   9.790 -10.043  1.00  0.00    -0.381 OA
ENDBRANCH  22  23
ENDBRANCH  14  22
BRANCH  18  29
ATOM     29  N   UNL     1     -12.357  14.577 -11.701  1.00  0.00    -0.355 N 
ATOM     30  H   UNL     1     -11.399  14.460 -12.125  1.00  0.00     0.163 HD
BRANCH  29  31
ATOM     31  C   UNL     1     -13.216  13.897 -12.363  1.00  0.00     0.102 A 
ATOM     32  C   UNL     1     -13.731  12.714 -11.957  1.00  0.00     0.190 A 
ATOM     33  C   UNL     1     -13.672  14.358 -13.562  1.00  0.00     0.068 A 
ATOM     34  O   UNL     1     -13.482  12.098 -10.919  1.00  0.00    -0.451 OA
ATOM     35  C   UNL     1     -14.621  12.027 -12.685  1.00  0.00     0.168 A 
ATOM     36  C   UNL     1     -14.566  13.659 -14.289  1.00  0.00     0.027 A 
ATOM     37  C   UNL     1     -14.299  10.929 -10.875  1.00  0.00     0.468 C 
ATOM     38  O   UNL     1     -14.958  10.979 -12.135  1.00  0.00    -0.454 OA
ATOM     39  C   UNL     1     -15.054  12.486 -13.862  1.00  0.00     0.052 A 
ATOM     40  Cl  UNL     1     -13.153  15.852 -14.291  1.00  0.00    -0.082 Cl
ENDBRANCH  29  31
ENDBRANCH  18  29
ENDBRANCH   1  11
TORSDOF 8
ENDMDL
MODEL 9
REMARK VINA RESULT:    -8.733      1.534      1.908
REMARK INTER + INTRA:         -14.597
REMARK INTER:                 -12.924
REMARK INTRA:                  -1.672
REMARK UNBOUND:                -1.780
REMARK SMILES CN1CCN(CCOc2cc3c(c(OC4CCOCC4)c2)C(Nc2c(Cl)ccc4c2OCO4)N=CN3)CC1
REMARK SMILES IDX 8 1 7 2 6 3 5 4 2 5 3 6 38 7 4 8 37 9 1 10 9 11 21 12 10 13
REMARK SMILES IDX 13 14 11 15 12 16 36 17 22 18 35 19 34 20 14 22 15 23 16 24
REMARK SMILES IDX 20 25 17 26 19 27 18 28 23 29 24 31 30 32 25 33 31 34 29 35
REMARK SMILES IDX 27 36 32 37 33 38 28 39 26 40
REMARK H PARENT 36 21 23 30
ROOT
ATOM      1  O   UNL     1     -10.078  12.815  -6.419  1.00  0.00    -0.492 OA
ENDROOT
BRANCH   1   2
ATOM      2  C   UNL     1      -8.671  12.817  -6.376  1.00  0.00     0.245 C 
BRANCH   2   3
ATOM      3  C   UNL     1      -8.116  13.812  -5.343  1.00  0.00     0.126 C 
BRANCH   3   4
ATOM      4  N   UNL     1      -8.037  13.338  -3.966  1.00  0.00    -0.297 NA
ATOM      5  N   UNL     1      -7.281  13.770  -1.176  1.00  0.00    -0.304 NA
ATOM      6  C   UNL     1      -6.480  12.946  -2.064  1.00  0.00     0.099 C 
ATOM      7  C   UNL     1      -8.669  13.731  -1.598  1.00  0.00     0.099 C 
ATOM      8  C   UNL     1      -6.643  13.366  -3.532  1.00  0.00     0.100 C 
ATOM      9  C   UNL     1      -8.810  14.179  -3.065  1.00  0.00     0.100 C 
ATOM     10  C   UNL     1      -7.148  13.306   0.194  1.00  0.00     0.105 C 
ENDBRANCH   3   4
ENDBRANCH   2   3
ENDBRANCH   1   2
BRANCH   1  11
ATOM     11  C   UNL     1     -10.641  13.214  -7.606  1.00  0.00     0.125 A 
ATOM     12  C   UNL     1     -10.763  12.374  -8.651  1.00  0.00     0.093 A 
ATOM     13  C   UNL     1     -11.116  14.449  -7.801  1.00  0.00     0.073 A 
ATOM     14  C   UNL     1     -11.318  12.690  -9.843  1.00  0.00     0.132 A 
ATOM     15  C   UNL     1     -11.669  14.811  -8.968  1.00  0.00     0.054 A 
ATOM     16  C   UNL     1     -11.789  13.956 -10.021  1.00  0.00     0.062 A 
ATOM     17  N   UNL     1     -12.074  16.012  -9.014  1.00  0.00    -0.346 N 
ATOM     18  C   UNL     1     -12.368  14.457 -11.150  1.00  0.00     0.236 C 
ATOM     19  C   UNL     1     -12.598  16.384 -10.095  1.00  0.00     0.193 C 
ATOM     20  N   UNL     1     -12.754  15.674 -11.127  1.00  0.00    -0.246 NA
ATOM     21  H   UNL     1     -11.984  16.620  -8.244  1.00  0.00     0.167 HD
BRANCH  14  22
ATOM     22  O   UNL     1     -11.372  11.745 -10.851  1.00  0.00    -0.490 OA
BRANCH  22  23
ATOM     23  C   UNL     1     -10.808  10.462 -10.727  1.00  0.00     0.178 C 
ATOM     24  C   UNL     1     -11.848   9.343 -10.653  1.00  0.00     0.073 C 
ATOM     25  C   UNL     1      -9.941  10.267 -11.981  1.00  0.00     0.073 C 
ATOM     26  C   UNL     1     -11.206   7.979 -10.884  1.00  0.00     0.164 C 
ATOM     27  C   UNL     1      -9.438   8.832 -12.094  1.00  0.00     0.164 C 
ATOM     28  O   UNL     1     -10.526   7.948 -12.116  1.00  0.00    -0.381 OA
ENDBRANCH  22  23
ENDBRANCH  14  22
BRANCH  18  29
ATOM     29  N   UNL     1     -12.650  13.964 -12.299  1.00  0.00    -0.355 N 
ATOM     30  H   UNL     1     -11.820  13.487 -12.741  1.00  0.00     0.163 HD
BRANCH  29  31
ATOM     31  C   UNL     1     -13.666  13.885 -13.074  1.00  0.00     0.102 A 
ATOM     32  C   UNL     1     -13.884  14.695 -14.135  1.00  0.00     0.190 A 
ATOM     33  C   UNL     1     -14.619  12.936 -12.852  1.00  0.00     0.068 A 
ATOM     34  O   UNL     1     -13.173  15.618 -14.539  1.00  0.00    -0.451 OA
ATOM     35  C   UNL     1     -14.967  14.588 -14.915  1.00  0.00     0.168 A 
ATOM     36  C   UNL     1     -15.707  12.837 -13.640  1.00  0.00     0.027 A 
ATOM     37  C   UNL     1     -13.757  16.158 -15.723  1.00  0.00     0.468 C 
ATOM     38  O   UNL     1     -14.969  15.420 -15.820  1.00  0.00    -0.454 OA
ATOM     39  C   UNL     1     -15.897  13.657 -14.683  1.00  0.00     0.052 A 
ATOM     40  Cl  UNL     1     -14.560  11.785 -11.547  1.00  0.00    -0.082 Cl
ENDBRANCH  29  31
ENDBRANCH  18  29
ENDBRANCH   1  11
TORSDOF 8
ENDMDL
MODEL 10
REMARK VINA RESULT:    -8.482      2.283      3.330
REMARK INTER + INTRA:         -14.230
REMARK INTER:                 -12.560
REMARK INTRA:                  -1.669
REMARK UNBOUND:                -1.780
REMARK SMILES CN1CCN(CCOc2cc3c(c(OC4CCOCC4)c2)C(Nc2c(Cl)ccc4c2OCO4)N=CN3)CC1
REMARK SMILES IDX 8 1 7 2 6 3 5 4 2 5 3 6 38 7 4 8 37 9 1 10 9 11 21 12 10 13
REMARK SMILES IDX 13 14 11 15 12 16 36 17 22 18 35 19 34 20 14 22 15 23 16 24
REMARK SMILES IDX 20 25 17 26 19 27 18 28 23 29 24 31 30 32 25 33 31 34 29 35
REMARK SMILES IDX 27 36 32 37 33 38 28 39 26 40
REMARK H PARENT 36 21 23 30
ROOT
ATOM      1  O   UNL     1      -9.761  13.475  -6.441  1.00  0.00    -0.492 OA
ENDROOT
BRANCH   1   2
ATOM      2  C   UNL     1      -8.575  14.166  -6.129  1.00  0.00     0.245 C 
BRANCH   2   3
ATOM      3  C   UNL     1      -8.618  14.803  -4.730  1.00  0.00     0.126 C 
BRANCH   3   4
ATOM      4  N   UNL     1      -7.931  16.081  -4.580  1.00  0.00    -0.297 NA
ATOM      5  N   UNL     1      -7.393  18.795  -5.523  1.00  0.00    -0.304 NA
ATOM      6  C   UNL     1      -6.450  17.712  -5.739  1.00  0.00     0.099 C 
ATOM      7  C   UNL     1      -8.160  18.539  -4.317  1.00  0.00     0.099 C 
ATOM      8  C   UNL     1      -7.151  16.347  -5.785  1.00  0.00     0.100 C 
ATOM      9  C   UNL     1      -8.873  17.176  -4.397  1.00  0.00     0.100 C 
ATOM     10  C   UNL     1      -6.689  20.062  -5.424  1.00  0.00     0.105 C 
ENDBRANCH   3   4
ENDBRANCH   2   3
ENDBRANCH   1   2
BRANCH   1  11
ATOM     11  C   UNL     1     -10.418  13.894  -7.572  1.00  0.00     0.125 A 
ATOM     12  C   UNL     1     -10.261  13.272  -8.756  1.00  0.00     0.093 A 
ATOM     13  C   UNL     1     -11.263  14.931  -7.574  1.00  0.00     0.073 A 
ATOM     14  C   UNL     1     -10.884  13.617  -9.905  1.00  0.00     0.132 A 
ATOM     15  C   UNL     1     -11.898  15.316  -8.690  1.00  0.00     0.054 A 
ATOM     16  C   UNL     1     -11.735  14.681  -9.884  1.00  0.00     0.062 A 
ATOM     17  N   UNL     1     -12.666  16.314  -8.547  1.00  0.00    -0.346 N 
ATOM     18  C   UNL     1     -12.439  15.180 -10.941  1.00  0.00     0.236 C 
ATOM     19  C   UNL     1     -13.278  16.700  -9.576  1.00  0.00     0.193 C 
ATOM     20  N   UNL     1     -13.194  16.186 -10.726  1.00  0.00    -0.246 NA
ATOM     21  H   UNL     1     -12.778  16.762  -7.677  1.00  0.00     0.167 HD
BRANCH  14  22
ATOM     22  O   UNL     1     -10.629  12.912 -11.067  1.00  0.00    -0.490 OA
BRANCH  22  23
ATOM     23  C   UNL     1     -10.118  11.601 -11.068  1.00  0.00     0.178 C 
ATOM     24  C   UNL     1     -10.724  10.711 -12.154  1.00  0.00     0.073 C 
ATOM     25  C   UNL     1      -8.607  11.746 -11.316  1.00  0.00     0.073 C 
ATOM     26  C   UNL     1      -9.898   9.445 -12.352  1.00  0.00     0.164 C 
ATOM     27  C   UNL     1      -7.950  10.392 -11.562  1.00  0.00     0.164 C 
ATOM     28  O   UNL     1      -8.561   9.760 -12.655  1.00  0.00    -0.381 OA
ENDBRANCH  22  23
ENDBRANCH  14  22
BRANCH  18  29
ATOM     29  N   UNL     1     -12.545  14.850 -12.175  1.00  0.00    -0.355 N 
ATOM     30  H   UNL     1     -11.809  15.311 -12.773  1.00  0.00     0.163 HD
BRANCH  29  31
ATOM     31  C   UNL     1     -13.299  14.111 -12.898  1.00  0.00     0.102 A 
ATOM     32  C   UNL     1     -13.853  12.948 -12.485  1.00  0.00     0.190 A 
ATOM     33  C   UNL     1     -13.591  14.481 -14.178  1.00  0.00     0.068 A 
ATOM     34  O   UNL     1     -13.743  12.408 -11.382  1.00  0.00    -0.451 OA
ATOM     35  C   UNL     1     -14.629  12.196 -13.277  1.00  0.00     0.168 A 
ATOM     36  C   UNL     1     -14.370  13.717 -14.968  1.00  0.00     0.027 A 
ATOM     37  C   UNL     1     -14.547  11.230 -11.368  1.00  0.00     0.468 C 
ATOM     38  O   UNL     1     -15.028  11.183 -12.707  1.00  0.00    -0.454 OA
ATOM     39  C   UNL     1     -14.902  12.567 -14.531  1.00  0.00     0.052 A 
ATOM     40  Cl  UNL     1     -12.991  15.931 -14.931  1.00  0.00    -0.082 Cl
ENDBRANCH  29  31
ENDBRANCH  18  29
ENDBRANCH   1  11
TORSDOF 8
ENDMDL
