MODEL 1
REMARK VINA RESULT:    -6.217      0.000      0.000
REMARK INTER + INTRA:          -7.178
REMARK INTER:                  -6.944
REMARK INTRA:                  -0.234
REMARK UNBOUND:                -0.234
REMARK SMILES O=C(N[C@H]1CN2CCC1CC2)c1cc2cccc(Cl)c2s1
REMARK SMILES IDX 12 1 13 2 14 3 20 4 18 5 17 6 16 7 15 8 21 9 19 10 2 11 3 12
REMARK SMILES IDX 1 13 4 15 9 16 5 17 8 18 10 19 6 20 7 21 11 22
REMARK H PARENT 3 14
ROOT
ATOM      1  C   UNL     1     141.749 141.267  95.851  1.00  0.00     0.093 A 
ATOM      2  C   UNL     1     141.531 142.375  96.595  1.00  0.00     0.034 A 
ATOM      3  C   UNL     1     140.263 142.550  97.246  1.00  0.00    -0.005 A 
ATOM      4  C   UNL     1     139.349 141.466  97.009  1.00  0.00     0.054 A 
ATOM      5  C   UNL     1     138.095 141.496  97.571  1.00  0.00     0.058 A 
ATOM      6  C   UNL     1     137.717 142.580  98.369  1.00  0.00     0.022 A 
ATOM      7  C   UNL     1     138.612 143.639  98.598  1.00  0.00     0.002 A 
ATOM      8  C   UNL     1     139.886 143.610  98.028  1.00  0.00     0.010 A 
ATOM      9  S   UNL     1     140.284 140.331  95.940  1.00  0.00    -0.128 S 
ATOM     10  Cl  UNL     1     136.954 140.157  97.283  1.00  0.00    -0.083 Cl
ENDROOT
BRANCH   1  11
ATOM     11  C   UNL     1     143.040 140.935  95.095  1.00  0.00     0.261 C 
ATOM     12  N   UNL     1     142.991 140.439  93.733  1.00  0.00    -0.347 N 
ATOM     13  O   UNL     1     144.086 141.082  95.630  1.00  0.00    -0.268 OA
ATOM     14  H   UNL     1     142.125 140.312  93.282  1.00  0.00     0.164 HD
BRANCH  12  15
ATOM     15  C   UNL     1     144.254 140.125  93.026  1.00  0.00     0.099 C 
ATOM     16  C   UNL     1     144.052 140.209  91.582  1.00  0.00     0.015 C 
ATOM     17  C   UNL     1     144.704 138.691  93.367  1.00  0.00     0.109 C 
ATOM     18  C   UNL     1     145.281 139.855  90.928  1.00  0.00     0.021 C 
ATOM     19  C   UNL     1     143.031 139.236  91.203  1.00  0.00     0.021 C 
ATOM     20  N   UNL     1     144.818 137.909  92.215  1.00  0.00    -0.301 NA
ATOM     21  C   UNL     1     145.713 138.478  91.335  1.00  0.00     0.085 C 
ATOM     22  C   UNL     1     143.552 137.799  91.588  1.00  0.00     0.085 C 
ENDBRANCH  12  15
ENDBRANCH   1  11
TORSDOF 2
ENDMDL
MODEL 2
REMARK VINA RESULT:    -5.883      5.655      6.641
REMARK INTER + INTRA:          -6.805
REMARK INTER:                  -6.491
REMARK INTRA:                  -0.314
REMARK UNBOUND:                -0.234
REMARK SMILES O=C(N[C@H]1CN2CCC1CC2)c1cc2cccc(Cl)c2s1
REMARK SMILES IDX 12 1 13 2 14 3 20 4 18 5 17 6 16 7 15 8 21 9 19 10 2 11 3 12
REMARK SMILES IDX 1 13 4 15 9 16 5 17 8 18 10 19 6 20 7 21 11 22
REMARK H PARENT 3 14
ROOT
ATOM      1  C   UNL     1     145.389 142.661  94.451  1.00  0.00     0.093 A 
ATOM      2  C   UNL     1     144.325 142.876  95.258  1.00  0.00     0.034 A 
ATOM      3  C   UNL     1     143.275 141.899  95.316  1.00  0.00    -0.005 A 
ATOM      4  C   UNL     1     143.510 140.762  94.467  1.00  0.00     0.054 A 
ATOM      5  C   UNL     1     142.588 139.744  94.421  1.00  0.00     0.058 A 
ATOM      6  C   UNL     1     141.429 139.819  95.200  1.00  0.00     0.022 A 
ATOM      7  C   UNL     1     141.203 140.932  96.028  1.00  0.00     0.002 A 
ATOM      8  C   UNL     1     142.137 141.966  96.076  1.00  0.00     0.010 A 
ATOM      9  S   UNL     1     145.108 141.126  93.681  1.00  0.00    -0.128 S 
ATOM     10  Cl  UNL     1     142.868 138.331  93.371  1.00  0.00    -0.083 Cl
ENDROOT
BRANCH   1  11
ATOM     11  C   UNL     1     146.586 143.603  94.275  1.00  0.00     0.261 C 
ATOM     12  N   UNL     1     147.875 143.273  94.849  1.00  0.00    -0.347 N 
ATOM     13  O   UNL     1     146.453 144.611  93.668  1.00  0.00    -0.268 OA
ATOM     14  H   UNL     1     147.993 142.438  95.357  1.00  0.00     0.164 HD
BRANCH  12  15
ATOM     15  C   UNL     1     149.014 144.201  94.664  1.00  0.00     0.099 C 
ATOM     16  C   UNL     1     150.167 143.479  94.134  1.00  0.00     0.015 C 
ATOM     17  C   UNL     1     149.414 144.818  96.019  1.00  0.00     0.109 C 
ATOM     18  C   UNL     1     151.265 144.396  94.011  1.00  0.00     0.021 C 
ATOM     19  C   UNL     1     150.540 142.441  95.092  1.00  0.00     0.021 C 
ATOM     20  N   UNL     1     150.748 144.538  96.329  1.00  0.00    -0.301 NA
ATOM     21  C   UNL     1     151.580 145.017  95.340  1.00  0.00     0.085 C 
ATOM     22  C   UNL     1     150.926 143.138  96.452  1.00  0.00     0.085 C 
ENDBRANCH  12  15
ENDBRANCH   1  11
TORSDOF 2
ENDMDL
MODEL 3
REMARK VINA RESULT:    -5.752      5.875      9.391
REMARK INTER + INTRA:          -6.659
REMARK INTER:                  -6.361
REMARK INTRA:                  -0.298
REMARK UNBOUND:                -0.234
REMARK SMILES O=C(N[C@H]1CN2CCC1CC2)c1cc2cccc(Cl)c2s1
REMARK SMILES IDX 12 1 13 2 14 3 20 4 18 5 17 6 16 7 15 8 21 9 19 10 2 11 3 12
REMARK SMILES IDX 1 13 4 15 9 16 5 17 8 18 10 19 6 20 7 21 11 22
REMARK H PARENT 3 14
ROOT
ATOM      1  C   UNL     1     141.088 139.511  87.489  1.00  0.00     0.093 A 
ATOM      2  C   UNL     1     141.796 139.447  86.338  1.00  0.00     0.034 A 
ATOM      3  C   UNL     1     141.250 138.745  85.212  1.00  0.00    -0.005 A 
ATOM      4  C   UNL     1     139.955 138.176  85.471  1.00  0.00     0.054 A 
ATOM      5  C   UNL     1     139.308 137.475  84.482  1.00  0.00     0.058 A 
ATOM      6  C   UNL     1     139.912 137.319  83.230  1.00  0.00     0.022 A 
ATOM      7  C   UNL     1     141.178 137.876  82.981  1.00  0.00     0.002 A 
ATOM      8  C   UNL     1     141.837 138.588  83.984  1.00  0.00     0.010 A 
ATOM      9  S   UNL     1     139.610 138.641  87.195  1.00  0.00    -0.128 S 
ATOM     10  Cl  UNL     1     137.703 136.765  84.793  1.00  0.00    -0.083 Cl
ENDROOT
BRANCH   1  11
ATOM     11  C   UNL     1     141.531 140.217  88.776  1.00  0.00     0.261 C 
ATOM     12  N   UNL     1     142.592 139.662  89.594  1.00  0.00    -0.347 N 
ATOM     13  O   UNL     1     140.999 141.222  89.105  1.00  0.00    -0.268 OA
ATOM     14  H   UNL     1     143.037 138.826  89.328  1.00  0.00     0.164 HD
BRANCH  12  15
ATOM     15  C   UNL     1     143.000 140.364  90.832  1.00  0.00     0.099 C 
ATOM     16  C   UNL     1     144.432 140.190  91.057  1.00  0.00     0.015 C 
ATOM     17  C   UNL     1     142.247 139.776  92.042  1.00  0.00     0.109 C 
ATOM     18  C   UNL     1     144.784 140.843  92.287  1.00  0.00     0.021 C 
ATOM     19  C   UNL     1     144.704 138.762  91.199  1.00  0.00     0.021 C 
ATOM     20  N   UNL     1     143.137 139.283  93.000  1.00  0.00    -0.301 NA
ATOM     21  C   UNL     1     143.985 140.282  93.426  1.00  0.00     0.085 C 
ATOM     22  C   UNL     1     143.899 138.227  92.443  1.00  0.00     0.085 C 
ENDBRANCH  12  15
ENDBRANCH   1  11
TORSDOF 2
ENDMDL
MODEL 4
REMARK VINA RESULT:    -5.748      5.777      7.439
REMARK INTER + INTRA:          -6.654
REMARK INTER:                  -6.348
REMARK INTRA:                  -0.305
REMARK UNBOUND:                -0.234
REMARK SMILES O=C(N[C@H]1CN2CCC1CC2)c1cc2cccc(Cl)c2s1
REMARK SMILES IDX 12 1 13 2 14 3 20 4 18 5 17 6 16 7 15 8 21 9 19 10 2 11 3 12
REMARK SMILES IDX 1 13 4 15 9 16 5 17 8 18 10 19 6 20 7 21 11 22
REMARK H PARENT 3 14
ROOT
ATOM      1  C   UNL     1     145.239 142.807  94.563  1.00  0.00     0.093 A 
ATOM      2  C   UNL     1     144.128 142.810  95.336  1.00  0.00     0.034 A 
ATOM      3  C   UNL     1     143.218 141.702  95.268  1.00  0.00    -0.005 A 
ATOM      4  C   UNL     1     143.632 140.683  94.341  1.00  0.00     0.054 A 
ATOM      5  C   UNL     1     142.858 139.561  94.171  1.00  0.00     0.058 A 
ATOM      6  C   UNL     1     141.674 139.416  94.900  1.00  0.00     0.022 A 
ATOM      7  C   UNL     1     141.272 140.414  95.804  1.00  0.00     0.002 A 
ATOM      8  C   UNL     1     142.056 141.554  95.978  1.00  0.00     0.010 A 
ATOM      9  S   UNL     1     145.193 141.320  93.660  1.00  0.00    -0.128 S 
ATOM     10  Cl  UNL     1     143.361 138.292  93.024  1.00  0.00    -0.083 Cl
ENDROOT
BRANCH   1  11
ATOM     11  C   UNL     1     146.303 143.909  94.519  1.00  0.00     0.261 C 
ATOM     12  N   UNL     1     146.716 144.585  95.733  1.00  0.00    -0.347 N 
ATOM     13  O   UNL     1     146.789 144.213  93.482  1.00  0.00    -0.268 OA
ATOM     14  H   UNL     1     146.315 144.341  96.598  1.00  0.00     0.164 HD
BRANCH  12  15
ATOM     15  C   UNL     1     147.745 145.647  95.662  1.00  0.00     0.099 C 
ATOM     16  C   UNL     1     148.549 145.647  96.880  1.00  0.00     0.015 C 
ATOM     17  C   UNL     1     147.069 147.026  95.531  1.00  0.00     0.109 C 
ATOM     18  C   UNL     1     149.505 146.716  96.798  1.00  0.00     0.021 C 
ATOM     19  C   UNL     1     147.665 145.906  98.014  1.00  0.00     0.021 C 
ATOM     20  N   UNL     1     147.438 147.872  96.580  1.00  0.00    -0.301 NA
ATOM     21  C   UNL     1     148.807 148.030  96.611  1.00  0.00     0.085 C 
ATOM     22  C   UNL     1     147.003 147.322  97.811  1.00  0.00     0.085 C 
ENDBRANCH  12  15
ENDBRANCH   1  11
TORSDOF 2
ENDMDL
MODEL 5
REMARK VINA RESULT:    -5.670      5.600      7.185
REMARK INTER + INTRA:          -6.567
REMARK INTER:                  -6.252
REMARK INTRA:                  -0.315
REMARK UNBOUND:                -0.234
REMARK SMILES O=C(N[C@H]1CN2CCC1CC2)c1cc2cccc(Cl)c2s1
REMARK SMILES IDX 12 1 13 2 14 3 20 4 18 5 17 6 16 7 15 8 21 9 19 10 2 11 3 12
REMARK SMILES IDX 1 13 4 15 9 16 5 17 8 18 10 19 6 20 7 21 11 22
REMARK H PARENT 3 14
ROOT
ATOM      1  C   UNL     1     145.273 143.007  94.773  1.00  0.00     0.093 A 
ATOM      2  C   UNL     1     145.558 141.991  93.925  1.00  0.00     0.034 A 
ATOM      3  C   UNL     1     144.631 140.904  93.789  1.00  0.00    -0.005 A 
ATOM      4  C   UNL     1     143.462 141.049  94.613  1.00  0.00     0.054 A 
ATOM      5  C   UNL     1     142.485 140.082  94.586  1.00  0.00     0.058 A 
ATOM      6  C   UNL     1     142.634 138.965  93.758  1.00  0.00     0.022 A 
ATOM      7  C   UNL     1     143.779 138.827  92.954  1.00  0.00     0.002 A 
ATOM      8  C   UNL     1     144.772 139.807  92.980  1.00  0.00     0.010 A 
ATOM      9  S   UNL     1     143.731 142.622  95.483  1.00  0.00    -0.128 S 
ATOM     10  Cl  UNL     1     141.032 140.250  95.605  1.00  0.00    -0.083 Cl
ENDROOT
BRANCH   1  11
ATOM     11  C   UNL     1     146.155 144.233  95.032  1.00  0.00     0.261 C 
ATOM     12  N   UNL     1     147.143 144.650  94.056  1.00  0.00    -0.347 N 
ATOM     13  O   UNL     1     146.029 144.843  96.039  1.00  0.00    -0.268 OA
ATOM     14  H   UNL     1     147.255 144.147  93.217  1.00  0.00     0.164 HD
BRANCH  12  15
ATOM     15  C   UNL     1     147.982 145.838  94.331  1.00  0.00     0.099 C 
ATOM     16  C   UNL     1     148.234 146.571  93.093  1.00  0.00     0.015 C 
ATOM     17  C   UNL     1     149.340 145.399  94.914  1.00  0.00     0.109 C 
ATOM     18  C   UNL     1     149.086 147.688  93.387  1.00  0.00     0.021 C 
ATOM     19  C   UNL     1     148.938 145.684  92.170  1.00  0.00     0.021 C 
ATOM     20  N   UNL     1     150.400 145.846  94.122  1.00  0.00    -0.301 NA
ATOM     21  C   UNL     1     150.368 147.219  94.008  1.00  0.00     0.085 C 
ATOM     22  C   UNL     1     150.307 145.269  92.831  1.00  0.00     0.085 C 
ENDBRANCH  12  15
ENDBRANCH   1  11
TORSDOF 2
ENDMDL
MODEL 6
REMARK VINA RESULT:    -5.610      5.520      6.808
REMARK INTER + INTRA:          -6.500
REMARK INTER:                  -6.180
REMARK INTRA:                  -0.319
REMARK UNBOUND:                -0.234
REMARK SMILES O=C(N[C@H]1CN2CCC1CC2)c1cc2cccc(Cl)c2s1
REMARK SMILES IDX 12 1 13 2 14 3 20 4 18 5 17 6 16 7 15 8 21 9 19 10 2 11 3 12
REMARK SMILES IDX 1 13 4 15 9 16 5 17 8 18 10 19 6 20 7 21 11 22
REMARK H PARENT 3 14
ROOT
ATOM      1  C   UNL     1     145.216 143.039  94.759  1.00  0.00     0.093 A 
ATOM      2  C   UNL     1     145.151 141.885  94.056  1.00  0.00     0.034 A 
ATOM      3  C   UNL     1     144.048 140.991  94.267  1.00  0.00    -0.005 A 
ATOM      4  C   UNL     1     143.111 141.468  95.248  1.00  0.00     0.054 A 
ATOM      5  C   UNL     1     142.003 140.715  95.554  1.00  0.00     0.058 A 
ATOM      6  C   UNL     1     141.793 139.492  94.910  1.00  0.00     0.022 A 
ATOM      7  C   UNL     1     142.711 139.029  93.953  1.00  0.00     0.002 A 
ATOM      8  C   UNL     1     143.838 139.791  93.641  1.00  0.00     0.010 A 
ATOM      9  S   UNL     1     143.808 143.060  95.782  1.00  0.00    -0.128 S 
ATOM     10  Cl  UNL     1     140.835 141.297  96.769  1.00  0.00    -0.083 Cl
ENDROOT
BRANCH   1  11
ATOM     11  C   UNL     1     146.324 144.093  94.651  1.00  0.00     0.261 C 
ATOM     12  N   UNL     1     147.718 143.714  94.778  1.00  0.00    -0.347 N 
ATOM     13  O   UNL     1     146.037 145.227  94.466  1.00  0.00    -0.268 OA
ATOM     14  H   UNL     1     147.964 142.775  94.935  1.00  0.00     0.164 HD
BRANCH  12  15
ATOM     15  C   UNL     1     148.767 144.753  94.670  1.00  0.00     0.099 C 
ATOM     16  C   UNL     1     149.815 144.312  93.753  1.00  0.00     0.015 C 
ATOM     17  C   UNL     1     149.407 144.999  96.050  1.00  0.00     0.109 C 
ATOM     18  C   UNL     1     150.837 145.320  93.707  1.00  0.00     0.021 C 
ATOM     19  C   UNL     1     150.402 143.084  94.284  1.00  0.00     0.021 C 
ATOM     20  N   UNL     1     150.784 144.763  96.019  1.00  0.00    -0.301 NA
ATOM     21  C   UNL     1     151.388 145.569  95.080  1.00  0.00     0.085 C 
ATOM     22  C   UNL     1     151.027 143.405  95.695  1.00  0.00     0.085 C 
ENDBRANCH  12  15
ENDBRANCH   1  11
TORSDOF 2
ENDMDL
MODEL 7
REMARK VINA RESULT:    -5.601      6.459     10.219
REMARK INTER + INTRA:          -6.490
REMARK INTER:                  -6.175
REMARK INTRA:                  -0.315
REMARK UNBOUND:                -0.234
REMARK SMILES O=C(N[C@H]1CN2CCC1CC2)c1cc2cccc(Cl)c2s1
REMARK SMILES IDX 12 1 13 2 14 3 20 4 18 5 17 6 16 7 15 8 21 9 19 10 2 11 3 12
REMARK SMILES IDX 1 13 4 15 9 16 5 17 8 18 10 19 6 20 7 21 11 22
REMARK H PARENT 3 14
ROOT
ATOM      1  C   UNL     1     149.194 137.992  91.694  1.00  0.00     0.093 A 
ATOM      2  C   UNL     1     149.882 138.664  92.645  1.00  0.00     0.034 A 
ATOM      3  C   UNL     1     151.215 138.251  92.977  1.00  0.00    -0.005 A 
ATOM      4  C   UNL     1     151.666 137.120  92.212  1.00  0.00     0.054 A 
ATOM      5  C   UNL     1     152.926 136.613  92.421  1.00  0.00     0.058 A 
ATOM      6  C   UNL     1     153.762 137.201  93.376  1.00  0.00     0.022 A 
ATOM      7  C   UNL     1     153.318 138.305  94.122  1.00  0.00     0.002 A 
ATOM      8  C   UNL     1     152.039 138.821  93.911  1.00  0.00     0.010 A 
ATOM      9  S   UNL     1     150.255 136.731  91.133  1.00  0.00    -0.128 S 
ATOM     10  Cl  UNL     1     153.494 135.210  91.479  1.00  0.00    -0.083 Cl
ENDROOT
BRANCH   1  11
ATOM     11  C   UNL     1     147.767 138.305  91.229  1.00  0.00     0.261 C 
ATOM     12  N   UNL     1     146.672 138.334  92.178  1.00  0.00    -0.347 N 
ATOM     13  O   UNL     1     147.559 138.523  90.083  1.00  0.00    -0.268 OA
ATOM     14  H   UNL     1     146.836 138.152  93.131  1.00  0.00     0.164 HD
BRANCH  12  15
ATOM     15  C   UNL     1     145.303 138.639  91.702  1.00  0.00     0.099 C 
ATOM     16  C   UNL     1     145.055 140.076  91.782  1.00  0.00     0.015 C 
ATOM     17  C   UNL     1     144.266 137.921  92.587  1.00  0.00     0.109 C 
ATOM     18  C   UNL     1     143.707 140.331  91.358  1.00  0.00     0.021 C 
ATOM     19  C   UNL     1     145.184 140.487  93.178  1.00  0.00     0.021 C 
ATOM     20  N   UNL     1     143.385 138.832  93.176  1.00  0.00    -0.301 NA
ATOM     21  C   UNL     1     142.736 139.566  92.208  1.00  0.00     0.085 C 
ATOM     22  C   UNL     1     144.105 139.710  94.024  1.00  0.00     0.085 C 
ENDBRANCH  12  15
ENDBRANCH   1  11
TORSDOF 2
ENDMDL
MODEL 8
REMARK VINA RESULT:    -5.577      5.723      7.674
REMARK INTER + INTRA:          -6.463
REMARK INTER:                  -6.173
REMARK INTRA:                  -0.290
REMARK UNBOUND:                -0.234
REMARK SMILES O=C(N[C@H]1CN2CCC1CC2)c1cc2cccc(Cl)c2s1
REMARK SMILES IDX 12 1 13 2 14 3 20 4 18 5 17 6 16 7 15 8 21 9 19 10 2 11 3 12
REMARK SMILES IDX 1 13 4 15 9 16 5 17 8 18 10 19 6 20 7 21 11 22
REMARK H PARENT 3 14
ROOT
ATOM      1  C   UNL     1     145.295 143.050  94.659  1.00  0.00     0.093 A 
ATOM      2  C   UNL     1     145.270 141.912  93.928  1.00  0.00     0.034 A 
ATOM      3  C   UNL     1     144.197 140.977  94.114  1.00  0.00    -0.005 A 
ATOM      4  C   UNL     1     143.241 141.399  95.103  1.00  0.00     0.054 A 
ATOM      5  C   UNL     1     142.158 140.602  95.386  1.00  0.00     0.058 A 
ATOM      6  C   UNL     1     141.990 139.388  94.713  1.00  0.00     0.022 A 
ATOM      7  C   UNL     1     142.927 138.979  93.748  1.00  0.00     0.002 A 
ATOM      8  C   UNL     1     144.028 139.786  93.459  1.00  0.00     0.010 A 
ATOM      9  S   UNL     1     143.883 143.000  95.677  1.00  0.00    -0.128 S 
ATOM     10  Cl  UNL     1     140.967 141.115  96.610  1.00  0.00    -0.083 Cl
ENDROOT
BRANCH   1  11
ATOM     11  C   UNL     1     146.366 144.143  94.581  1.00  0.00     0.261 C 
ATOM     12  N   UNL     1     146.830 144.809  95.782  1.00  0.00    -0.347 N 
ATOM     13  O   UNL     1     146.817 144.446  93.528  1.00  0.00    -0.268 OA
ATOM     14  H   UNL     1     146.459 144.564  96.660  1.00  0.00     0.164 HD
BRANCH  12  15
ATOM     15  C   UNL     1     147.866 145.861  95.678  1.00  0.00     0.099 C 
ATOM     16  C   UNL     1     148.732 145.829  96.853  1.00  0.00     0.015 C 
ATOM     17  C   UNL     1     147.200 147.250  95.608  1.00  0.00     0.109 C 
ATOM     18  C   UNL     1     149.694 146.889  96.741  1.00  0.00     0.021 C 
ATOM     19  C   UNL     1     147.911 146.075  98.036  1.00  0.00     0.021 C 
ATOM     20  N   UNL     1     147.632 148.071  96.653  1.00  0.00    -0.301 NA
ATOM     21  C   UNL     1     149.002 148.214  96.616  1.00  0.00     0.085 C 
ATOM     22  C   UNL     1     147.255 147.501  97.894  1.00  0.00     0.085 C 
ENDBRANCH  12  15
ENDBRANCH   1  11
TORSDOF 2
ENDMDL
MODEL 9
REMARK VINA RESULT:    -5.514      3.555      5.486
REMARK INTER + INTRA:          -6.393
REMARK INTER:                  -6.137
REMARK INTRA:                  -0.256
REMARK UNBOUND:                -0.234
REMARK SMILES O=C(N[C@H]1CN2CCC1CC2)c1cc2cccc(Cl)c2s1
REMARK SMILES IDX 12 1 13 2 14 3 20 4 18 5 17 6 16 7 15 8 21 9 19 10 2 11 3 12
REMARK SMILES IDX 1 13 4 15 9 16 5 17 8 18 10 19 6 20 7 21 11 22
REMARK H PARENT 3 14
ROOT
ATOM      1  C   UNL     1     145.136 139.465  92.930  1.00  0.00     0.093 A 
ATOM      2  C   UNL     1     145.396 140.670  93.488  1.00  0.00     0.034 A 
ATOM      3  C   UNL     1     144.413 141.283  94.335  1.00  0.00    -0.005 A 
ATOM      4  C   UNL     1     143.223 140.491  94.487  1.00  0.00     0.054 A 
ATOM      5  C   UNL     1     142.194 140.952  95.273  1.00  0.00     0.058 A 
ATOM      6  C   UNL     1     142.310 142.186  95.919  1.00  0.00     0.022 A 
ATOM      7  C   UNL     1     143.475 142.958  95.767  1.00  0.00     0.002 A 
ATOM      8  C   UNL     1     144.521 142.492  94.970  1.00  0.00     0.010 A 
ATOM      9  S   UNL     1     143.547 139.014  93.479  1.00  0.00    -0.128 S 
ATOM     10  Cl  UNL     1     140.712 139.978  95.468  1.00  0.00    -0.083 Cl
ENDROOT
BRANCH   1  11
ATOM     11  C   UNL     1     146.076 138.684  92.005  1.00  0.00     0.261 C 
ATOM     12  N   UNL     1     147.459 138.458  92.379  1.00  0.00    -0.347 N 
ATOM     13  O   UNL     1     145.669 138.264  90.975  1.00  0.00    -0.268 OA
ATOM     14  H   UNL     1     147.805 138.805  93.232  1.00  0.00     0.164 HD
BRANCH  12  15
ATOM     15  C   UNL     1     148.345 137.700  91.467  1.00  0.00     0.099 C 
ATOM     16  C   UNL     1     149.439 137.094  92.222  1.00  0.00     0.015 C 
ATOM     17  C   UNL     1     148.954 138.649  90.416  1.00  0.00     0.109 C 
ATOM     18  C   UNL     1     150.303 136.407  91.303  1.00  0.00     0.021 C 
ATOM     19  C   UNL     1     150.203 138.162  92.861  1.00  0.00     0.021 C 
ATOM     20  N   UNL     1     150.350 138.634  90.468  1.00  0.00    -0.301 NA
ATOM     21  C   UNL     1     150.823 137.355  90.264  1.00  0.00     0.085 C 
ATOM     22  C   UNL     1     150.785 139.097  91.734  1.00  0.00     0.085 C 
ENDBRANCH  12  15
ENDBRANCH   1  11
TORSDOF 2
ENDMDL
MODEL 10
REMARK VINA RESULT:    -5.365      5.155      7.567
REMARK INTER + INTRA:          -6.226
REMARK INTER:                  -5.906
REMARK INTRA:                  -0.321
REMARK UNBOUND:                -0.234
REMARK SMILES O=C(N[C@H]1CN2CCC1CC2)c1cc2cccc(Cl)c2s1
REMARK SMILES IDX 12 1 13 2 14 3 20 4 18 5 17 6 16 7 15 8 21 9 19 10 2 11 3 12
REMARK SMILES IDX 1 13 4 15 9 16 5 17 8 18 10 19 6 20 7 21 11 22
REMARK H PARENT 3 14
ROOT
ATOM      1  C   UNL     1     146.513 138.613  91.482  1.00  0.00     0.093 A 
ATOM      2  C   UNL     1     145.712 138.992  90.460  1.00  0.00     0.034 A 
ATOM      3  C   UNL     1     144.373 139.428  90.737  1.00  0.00    -0.005 A 
ATOM      4  C   UNL     1     144.048 139.405  92.138  1.00  0.00     0.054 A 
ATOM      5  C   UNL     1     142.798 139.799  92.554  1.00  0.00     0.058 A 
ATOM      6  C   UNL     1     141.852 140.218  91.614  1.00  0.00     0.022 A 
ATOM      7  C   UNL     1     142.173 140.238  90.246  1.00  0.00     0.002 A 
ATOM      8  C   UNL     1     143.441 139.839  89.821  1.00  0.00     0.010 A 
ATOM      9  S   UNL     1     145.568 138.801  92.931  1.00  0.00    -0.128 S 
ATOM     10  Cl  UNL     1     142.384 139.774  94.288  1.00  0.00    -0.083 Cl
ENDROOT
BRANCH   1  11
ATOM     11  C   UNL     1     147.960 138.123  91.352  1.00  0.00     0.261 C 
ATOM     12  N   UNL     1     148.668 138.240  90.092  1.00  0.00    -0.347 N 
ATOM     13  O   UNL     1     148.501 137.641  92.289  1.00  0.00    -0.268 OA
ATOM     14  H   UNL     1     148.225 138.637  89.308  1.00  0.00     0.164 HD
BRANCH  12  15
ATOM     15  C   UNL     1     150.065 137.758  89.994  1.00  0.00     0.099 C 
ATOM     16  C   UNL     1     150.847 138.659  89.152  1.00  0.00     0.015 C 
ATOM     17  C   UNL     1     150.093 136.356  89.356  1.00  0.00     0.109 C 
ATOM     18  C   UNL     1     152.181 138.138  89.041  1.00  0.00     0.021 C 
ATOM     19  C   UNL     1     150.247 138.678  87.820  1.00  0.00     0.021 C 
ATOM     20  N   UNL     1     150.869 136.344  88.193  1.00  0.00    -0.301 NA
ATOM     21  C   UNL     1     152.156 136.751  88.472  1.00  0.00     0.085 C 
ATOM     22  C   UNL     1     150.301 137.217  87.233  1.00  0.00     0.085 C 
ENDBRANCH  12  15
ENDBRANCH   1  11
TORSDOF 2
ENDMDL
MODEL 11
REMARK VINA RESULT:    -5.332     10.850     11.921
REMARK INTER + INTRA:          -6.189
REMARK INTER:                  -5.946
REMARK INTRA:                  -0.243
REMARK UNBOUND:                -0.234
REMARK SMILES O=C(N[C@H]1CN2CCC1CC2)c1cc2cccc(Cl)c2s1
REMARK SMILES IDX 12 1 13 2 14 3 20 4 18 5 17 6 16 7 15 8 21 9 19 10 2 11 3 12
REMARK SMILES IDX 1 13 4 15 9 16 5 17 8 18 10 19 6 20 7 21 11 22
REMARK H PARENT 3 14
ROOT
ATOM      1  C   UNL     1     151.229 136.701  89.682  1.00  0.00     0.093 A 
ATOM      2  C   UNL     1     152.228 136.182  90.432  1.00  0.00     0.034 A 
ATOM      3  C   UNL     1     152.497 136.736  91.729  1.00  0.00    -0.005 A 
ATOM      4  C   UNL     1     151.621 137.823  92.075  1.00  0.00     0.054 A 
ATOM      5  C   UNL     1     151.761 138.450  93.289  1.00  0.00     0.058 A 
ATOM      6  C   UNL     1     152.753 138.029  94.180  1.00  0.00     0.022 A 
ATOM      7  C   UNL     1     153.608 136.968  93.838  1.00  0.00     0.002 A 
ATOM      8  C   UNL     1     153.468 136.329  92.605  1.00  0.00     0.010 A 
ATOM      9  S   UNL     1     150.534 137.987  90.627  1.00  0.00    -0.128 S 
ATOM     10  Cl  UNL     1     150.681 139.799  93.728  1.00  0.00    -0.083 Cl
ENDROOT
BRANCH   1  11
ATOM     11  C   UNL     1     150.819 136.226  88.283  1.00  0.00     0.261 C 
ATOM     12  N   UNL     1     149.506 135.654  88.054  1.00  0.00    -0.347 N 
ATOM     13  O   UNL     1     151.583 136.325  87.384  1.00  0.00    -0.268 OA
ATOM     14  H   UNL     1     148.866 135.566  88.796  1.00  0.00     0.164 HD
BRANCH  12  15
ATOM     15  C   UNL     1     149.136 135.203  86.693  1.00  0.00     0.099 C 
ATOM     16  C   UNL     1     148.609 136.324  85.921  1.00  0.00     0.015 C 
ATOM     17  C   UNL     1     148.042 134.120  86.778  1.00  0.00     0.109 C 
ATOM     18  C   UNL     1     148.217 135.844  84.625  1.00  0.00     0.021 C 
ATOM     19  C   UNL     1     147.421 136.833  86.601  1.00  0.00     0.021 C 
ATOM     20  N   UNL     1     146.894 134.504  86.079  1.00  0.00    -0.301 NA
ATOM     21  C   UNL     1     147.198 134.751  84.758  1.00  0.00     0.085 C 
ATOM     22  C   UNL     1     146.352 135.676  86.661  1.00  0.00     0.085 C 
ENDBRANCH  12  15
ENDBRANCH   1  11
TORSDOF 2
ENDMDL
MODEL 12
REMARK VINA RESULT:    -5.239     10.701     11.721
REMARK INTER + INTRA:          -6.086
REMARK INTER:                  -5.830
REMARK INTRA:                  -0.256
REMARK UNBOUND:                -0.234
REMARK SMILES O=C(N[C@H]1CN2CCC1CC2)c1cc2cccc(Cl)c2s1
REMARK SMILES IDX 12 1 13 2 14 3 20 4 18 5 17 6 16 7 15 8 21 9 19 10 2 11 3 12
REMARK SMILES IDX 1 13 4 15 9 16 5 17 8 18 10 19 6 20 7 21 11 22
REMARK H PARENT 3 14
ROOT
ATOM      1  C   UNL     1     151.163 136.807  89.680  1.00  0.00     0.093 A 
ATOM      2  C   UNL     1     150.672 137.911  90.289  1.00  0.00     0.034 A 
ATOM      3  C   UNL     1     151.132 138.256  91.603  1.00  0.00    -0.005 A 
ATOM      4  C   UNL     1     152.107 137.335  92.123  1.00  0.00     0.054 A 
ATOM      5  C   UNL     1     152.638 137.540  93.374  1.00  0.00     0.058 A 
ATOM      6  C   UNL     1     152.229 138.641  94.133  1.00  0.00     0.022 A 
ATOM      7  C   UNL     1     151.275 139.538  93.621  1.00  0.00     0.002 A 
ATOM      8  C   UNL     1     150.734 139.332  92.352  1.00  0.00     0.010 A 
ATOM      9  S   UNL     1     152.300 136.107  90.797  1.00  0.00    -0.128 S 
ATOM     10  Cl  UNL     1     153.847 136.404  94.029  1.00  0.00    -0.083 Cl
ENDROOT
BRANCH   1  11
ATOM     11  C   UNL     1     150.775 136.304  88.285  1.00  0.00     0.261 C 
ATOM     12  N   UNL     1     149.498 135.652  88.065  1.00  0.00    -0.347 N 
ATOM     13  O   UNL     1     151.526 136.448  87.380  1.00  0.00    -0.268 OA
ATOM     14  H   UNL     1     148.870 135.527  88.812  1.00  0.00     0.164 HD
BRANCH  12  15
ATOM     15  C   UNL     1     149.148 135.176  86.708  1.00  0.00     0.099 C 
ATOM     16  C   UNL     1     148.587 136.272  85.923  1.00  0.00     0.015 C 
ATOM     17  C   UNL     1     148.090 134.059  86.800  1.00  0.00     0.109 C 
ATOM     18  C   UNL     1     148.217 135.766  84.630  1.00  0.00     0.021 C 
ATOM     19  C   UNL     1     147.381 136.748  86.594  1.00  0.00     0.021 C 
ATOM     20  N   UNL     1     146.933 134.398  86.093  1.00  0.00    -0.301 NA
ATOM     21  C   UNL     1     147.233 134.642  84.771  1.00  0.00     0.085 C 
ATOM     22  C   UNL     1     146.350 135.557  86.662  1.00  0.00     0.085 C 
ENDBRANCH  12  15
ENDBRANCH   1  11
TORSDOF 2
ENDMDL
MODEL 13
REMARK VINA RESULT:    -5.235      5.929      7.058
REMARK INTER + INTRA:          -6.081
REMARK INTER:                  -5.825
REMARK INTRA:                  -0.256
REMARK UNBOUND:                -0.234
REMARK SMILES O=C(N[C@H]1CN2CCC1CC2)c1cc2cccc(Cl)c2s1
REMARK SMILES IDX 12 1 13 2 14 3 20 4 18 5 17 6 16 7 15 8 21 9 19 10 2 11 3 12
REMARK SMILES IDX 1 13 4 15 9 16 5 17 8 18 10 19 6 20 7 21 11 22
REMARK H PARENT 3 14
ROOT
ATOM      1  C   UNL     1     145.716 142.770  94.548  1.00  0.00     0.093 A 
ATOM      2  C   UNL     1     144.672 143.128  95.332  1.00  0.00     0.034 A 
ATOM      3  C   UNL     1     143.511 142.286  95.388  1.00  0.00    -0.005 A 
ATOM      4  C   UNL     1     143.620 141.112  94.564  1.00  0.00     0.054 A 
ATOM      5  C   UNL     1     142.583 140.212  94.520  1.00  0.00     0.058 A 
ATOM      6  C   UNL     1     141.429 140.442  95.275  1.00  0.00     0.022 A 
ATOM      7  C   UNL     1     141.326 141.590  96.079  1.00  0.00     0.002 A 
ATOM      8  C   UNL     1     142.378 142.506  96.125  1.00  0.00     0.010 A 
ATOM      9  S   UNL     1     145.263 141.265  93.801  1.00  0.00    -0.128 S 
ATOM     10  Cl  UNL     1     142.707 138.755  93.500  1.00  0.00    -0.083 Cl
ENDROOT
BRANCH   1  11
ATOM     11  C   UNL     1     147.020 143.558  94.378  1.00  0.00     0.261 C 
ATOM     12  N   UNL     1     147.020 144.851  93.722  1.00  0.00    -0.347 N 
ATOM     13  O   UNL     1     148.035 143.103  94.783  1.00  0.00    -0.268 OA
ATOM     14  H   UNL     1     146.180 145.234  93.380  1.00  0.00     0.164 HD
BRANCH  12  15
ATOM     15  C   UNL     1     148.294 145.590  93.570  1.00  0.00     0.099 C 
ATOM     16  C   UNL     1     148.587 146.337  94.790  1.00  0.00     0.015 C 
ATOM     17  C   UNL     1     148.183 146.594  92.406  1.00  0.00     0.109 C 
ATOM     18  C   UNL     1     149.802 147.077  94.592  1.00  0.00     0.021 C 
ATOM     19  C   UNL     1     147.501 147.287  95.019  1.00  0.00     0.021 C 
ATOM     20  N   UNL     1     148.420 147.901  92.840  1.00  0.00    -0.301 NA
ATOM     21  C   UNL     1     149.669 147.996  93.414  1.00  0.00     0.085 C 
ATOM     22  C   UNL     1     147.439 148.273  93.791  1.00  0.00     0.085 C 
ENDBRANCH  12  15
ENDBRANCH   1  11
TORSDOF 2
ENDMDL
MODEL 14
REMARK VINA RESULT:    -5.204      5.870      8.306
REMARK INTER + INTRA:          -6.047
REMARK INTER:                  -5.718
REMARK INTRA:                  -0.328
REMARK UNBOUND:                -0.234
REMARK SMILES O=C(N[C@H]1CN2CCC1CC2)c1cc2cccc(Cl)c2s1
REMARK SMILES IDX 12 1 13 2 14 3 20 4 18 5 17 6 16 7 15 8 21 9 19 10 2 11 3 12
REMARK SMILES IDX 1 13 4 15 9 16 5 17 8 18 10 19 6 20 7 21 11 22
REMARK H PARENT 3 14
ROOT
ATOM      1  C   UNL     1     141.582 140.115  89.107  1.00  0.00     0.093 A 
ATOM      2  C   UNL     1     142.890 139.781  89.197  1.00  0.00     0.034 A 
ATOM      3  C   UNL     1     143.513 139.712  90.488  1.00  0.00    -0.005 A 
ATOM      4  C   UNL     1     142.616 140.020  91.569  1.00  0.00     0.054 A 
ATOM      5  C   UNL     1     143.075 139.993  92.864  1.00  0.00     0.058 A 
ATOM      6  C   UNL     1     144.409 139.665  93.123  1.00  0.00     0.022 A 
ATOM      7  C   UNL     1     145.283 139.365  92.064  1.00  0.00     0.002 A 
ATOM      8  C   UNL     1     144.820 139.392  90.749  1.00  0.00     0.010 A 
ATOM      9  S   UNL     1     141.037 140.372  90.740  1.00  0.00    -0.128 S 
ATOM     10  Cl  UNL     1     141.971 140.375  94.211  1.00  0.00    -0.083 Cl
ENDROOT
BRANCH   1  11
ATOM     11  C   UNL     1     140.775 140.234  87.809  1.00  0.00     0.261 C 
ATOM     12  N   UNL     1     141.102 139.414  86.659  1.00  0.00    -0.347 N 
ATOM     13  O   UNL     1     139.877 141.004  87.747  1.00  0.00    -0.268 OA
ATOM     14  H   UNL     1     141.848 138.774  86.703  1.00  0.00     0.164 HD
BRANCH  12  15
ATOM     15  C   UNL     1     140.306 139.549  85.418  1.00  0.00     0.099 C 
ATOM     16  C   UNL     1     139.593 138.306  85.144  1.00  0.00     0.015 C 
ATOM     17  C   UNL     1     141.238 139.843  84.226  1.00  0.00     0.109 C 
ATOM     18  C   UNL     1     138.869 138.455  83.912  1.00  0.00     0.021 C 
ATOM     19  C   UNL     1     140.577 137.240  84.973  1.00  0.00     0.021 C 
ATOM     20  N   UNL     1     141.111 138.869  83.232  1.00  0.00    -0.301 NA
ATOM     21  C   UNL     1     139.807 138.800  82.793  1.00  0.00     0.085 C 
ATOM     22  C   UNL     1     141.498 137.608  83.749  1.00  0.00     0.085 C 
ENDBRANCH  12  15
ENDBRANCH   1  11
TORSDOF 2
ENDMDL
MODEL 15
REMARK VINA RESULT:    -5.186      6.622     11.150
REMARK INTER + INTRA:          -6.026
REMARK INTER:                  -5.713
REMARK INTRA:                  -0.313
REMARK UNBOUND:                -0.234
REMARK SMILES O=C(N[C@H]1CN2CCC1CC2)c1cc2cccc(Cl)c2s1
REMARK SMILES IDX 12 1 13 2 14 3 20 4 18 5 17 6 16 7 15 8 21 9 19 10 2 11 3 12
REMARK SMILES IDX 1 13 4 15 9 16 5 17 8 18 10 19 6 20 7 21 11 22
REMARK H PARENT 3 14
ROOT
ATOM      1  C   UNL     1     149.120 138.367  90.100  1.00  0.00     0.093 A 
ATOM      2  C   UNL     1     148.981 138.068  88.788  1.00  0.00     0.034 A 
ATOM      3  C   UNL     1     150.078 138.295  87.892  1.00  0.00    -0.005 A 
ATOM      4  C   UNL     1     151.240 138.836  88.544  1.00  0.00     0.054 A 
ATOM      5  C   UNL     1     152.371 139.104  87.810  1.00  0.00     0.058 A 
ATOM      6  C   UNL     1     152.384 138.850  86.435  1.00  0.00     0.022 A 
ATOM      7  C   UNL     1     151.246 138.322  85.801  1.00  0.00     0.002 A 
ATOM      8  C   UNL     1     150.098 138.049  86.545  1.00  0.00     0.010 A 
ATOM      9  S   UNL     1     150.737 138.984  90.285  1.00  0.00    -0.128 S 
ATOM     10  Cl  UNL     1     153.817 139.776  88.608  1.00  0.00    -0.083 Cl
ENDROOT
BRANCH   1  11
ATOM     11  C   UNL     1     148.047 138.185  91.180  1.00  0.00     0.261 C 
ATOM     12  N   UNL     1     146.679 138.602  90.937  1.00  0.00    -0.347 N 
ATOM     13  O   UNL     1     148.339 137.703  92.221  1.00  0.00    -0.268 OA
ATOM     14  H   UNL     1     146.428 139.005  90.076  1.00  0.00     0.164 HD
BRANCH  12  15
ATOM     15  C   UNL     1     145.662 138.415  91.998  1.00  0.00     0.099 C 
ATOM     16  C   UNL     1     144.374 138.074  91.401  1.00  0.00     0.015 C 
ATOM     17  C   UNL     1     145.491 139.722  92.797  1.00  0.00     0.109 C 
ATOM     18  C   UNL     1     143.403 137.945  92.451  1.00  0.00     0.021 C 
ATOM     19  C   UNL     1     143.967 139.172  90.528  1.00  0.00     0.021 C 
ATOM     20  N   UNL     1     144.171 140.177  92.746  1.00  0.00    -0.301 NA
ATOM     21  C   UNL     1     143.314 139.218  93.240  1.00  0.00     0.085 C 
ATOM     22  C   UNL     1     143.821 140.473  91.406  1.00  0.00     0.085 C 
ENDBRANCH  12  15
ENDBRANCH   1  11
TORSDOF 2
ENDMDL
MODEL 16
REMARK VINA RESULT:    -5.158      5.429      6.689
REMARK INTER + INTRA:          -5.995
REMARK INTER:                  -5.715
REMARK INTRA:                  -0.281
REMARK UNBOUND:                -0.234
REMARK SMILES O=C(N[C@H]1CN2CCC1CC2)c1cc2cccc(Cl)c2s1
REMARK SMILES IDX 12 1 13 2 14 3 20 4 18 5 17 6 16 7 15 8 21 9 19 10 2 11 3 12
REMARK SMILES IDX 1 13 4 15 9 16 5 17 8 18 10 19 6 20 7 21 11 22
REMARK H PARENT 3 14
ROOT
ATOM      1  C   UNL     1     143.713 143.495  97.007  1.00  0.00     0.093 A 
ATOM      2  C   UNL     1     142.408 143.465  97.366  1.00  0.00     0.034 A 
ATOM      3  C   UNL     1     141.555 142.438  96.841  1.00  0.00    -0.005 A 
ATOM      4  C   UNL     1     142.238 141.528  95.961  1.00  0.00     0.054 A 
ATOM      5  C   UNL     1     141.546 140.490  95.383  1.00  0.00     0.058 A 
ATOM      6  C   UNL     1     140.184 140.325  95.655  1.00  0.00     0.022 A 
ATOM      7  C   UNL     1     139.521 141.216  96.515  1.00  0.00     0.002 A 
ATOM      8  C   UNL     1     140.221 142.271  97.102  1.00  0.00     0.010 A 
ATOM      9  S   UNL     1     143.946 142.148  95.929  1.00  0.00    -0.128 S 
ATOM     10  Cl  UNL     1     142.382 139.357  94.290  1.00  0.00    -0.083 Cl
ENDROOT
BRANCH   1  11
ATOM     11  C   UNL     1     144.748 144.523  97.477  1.00  0.00     0.261 C 
ATOM     12  N   UNL     1     145.992 144.700  96.752  1.00  0.00    -0.347 N 
ATOM     13  O   UNL     1     144.531 145.175  98.441  1.00  0.00    -0.268 OA
ATOM     14  H   UNL     1     146.181 144.160  95.951  1.00  0.00     0.164 HD
BRANCH  12  15
ATOM     15  C   UNL     1     146.975 145.700  97.227  1.00  0.00     0.099 C 
ATOM     16  C   UNL     1     146.732 146.987  96.581  1.00  0.00     0.015 C 
ATOM     17  C   UNL     1     148.403 145.244  96.870  1.00  0.00     0.109 C 
ATOM     18  C   UNL     1     147.729 147.919  97.028  1.00  0.00     0.021 C 
ATOM     19  C   UNL     1     146.880 146.811  95.138  1.00  0.00     0.021 C 
ATOM     20  N   UNL     1     149.052 146.189  96.071  1.00  0.00    -0.301 NA
ATOM     21  C   UNL     1     149.104 147.406  96.714  1.00  0.00     0.085 C 
ATOM     22  C   UNL     1     148.354 146.336  94.846  1.00  0.00     0.085 C 
ENDBRANCH  12  15
ENDBRANCH   1  11
TORSDOF 2
ENDMDL
MODEL 17
REMARK VINA RESULT:    -5.077      4.963      7.385
REMARK INTER + INTRA:          -5.905
REMARK INTER:                  -5.602
REMARK INTRA:                  -0.303
REMARK UNBOUND:                -0.234
REMARK SMILES O=C(N[C@H]1CN2CCC1CC2)c1cc2cccc(Cl)c2s1
REMARK SMILES IDX 12 1 13 2 14 3 20 4 18 5 17 6 16 7 15 8 21 9 19 10 2 11 3 12
REMARK SMILES IDX 1 13 4 15 9 16 5 17 8 18 10 19 6 20 7 21 11 22
REMARK H PARENT 3 14
ROOT
ATOM      1  C   UNL     1     146.411 138.722  91.205  1.00  0.00     0.093 A 
ATOM      2  C   UNL     1     146.117 138.886  92.515  1.00  0.00     0.034 A 
ATOM      3  C   UNL     1     144.802 139.317  92.895  1.00  0.00    -0.005 A 
ATOM      4  C   UNL     1     143.927 139.525  91.773  1.00  0.00     0.054 A 
ATOM      5  C   UNL     1     142.633 139.939  91.985  1.00  0.00     0.058 A 
ATOM      6  C   UNL     1     142.176 140.154  93.289  1.00  0.00     0.022 A 
ATOM      7  C   UNL     1     143.035 139.950  94.383  1.00  0.00     0.002 A 
ATOM      8  C   UNL     1     144.348 139.531  94.170  1.00  0.00     0.010 A 
ATOM      9  S   UNL     1     144.960 139.123  90.332  1.00  0.00    -0.128 S 
ATOM     10  Cl  UNL     1     141.540 140.201  90.601  1.00  0.00    -0.083 Cl
ENDROOT
BRANCH   1  11
ATOM     11  C   UNL     1     147.762 138.271  90.639  1.00  0.00     0.261 C 
ATOM     12  N   UNL     1     148.739 137.622  91.491  1.00  0.00    -0.347 N 
ATOM     13  O   UNL     1     148.010 138.458  89.496  1.00  0.00    -0.268 OA
ATOM     14  H   UNL     1     148.542 137.466  92.443  1.00  0.00     0.164 HD
BRANCH  12  15
ATOM     15  C   UNL     1     150.037 137.197  90.919  1.00  0.00     0.099 C 
ATOM     16  C   UNL     1     150.518 136.001  91.603  1.00  0.00     0.015 C 
ATOM     17  C   UNL     1     151.085 138.312  91.107  1.00  0.00     0.109 C 
ATOM     18  C   UNL     1     151.797 135.643  91.056  1.00  0.00     0.021 C 
ATOM     19  C   UNL     1     150.694 136.320  93.018  1.00  0.00     0.021 C 
ATOM     20  N   UNL     1     152.185 137.856  91.838  1.00  0.00    -0.301 NA
ATOM     21  C   UNL     1     152.766 136.778  91.206  1.00  0.00     0.085 C 
ATOM     22  C   UNL     1     151.767 137.469  93.135  1.00  0.00     0.085 C 
ENDBRANCH  12  15
ENDBRANCH   1  11
TORSDOF 2
ENDMDL
MODEL 18
REMARK VINA RESULT:    -4.831     10.830     11.468
REMARK INTER + INTRA:          -5.630
REMARK INTER:                  -5.317
REMARK INTRA:                  -0.313
REMARK UNBOUND:                -0.234
REMARK SMILES O=C(N[C@H]1CN2CCC1CC2)c1cc2cccc(Cl)c2s1
REMARK SMILES IDX 12 1 13 2 14 3 20 4 18 5 17 6 16 7 15 8 21 9 19 10 2 11 3 12
REMARK SMILES IDX 1 13 4 15 9 16 5 17 8 18 10 19 6 20 7 21 11 22
REMARK H PARENT 3 14
ROOT
ATOM      1  C   UNL     1     150.699 137.441  90.634  1.00  0.00     0.093 A 
ATOM      2  C   UNL     1     151.201 137.101  91.843  1.00  0.00     0.034 A 
ATOM      3  C   UNL     1     151.720 138.125  92.705  1.00  0.00    -0.005 A 
ATOM      4  C   UNL     1     151.630 139.443  92.139  1.00  0.00     0.054 A 
ATOM      5  C   UNL     1     152.088 140.524  92.853  1.00  0.00     0.058 A 
ATOM      6  C   UNL     1     152.638 140.336  94.125  1.00  0.00     0.022 A 
ATOM      7  C   UNL     1     152.725 139.046  94.675  1.00  0.00     0.002 A 
ATOM      8  C   UNL     1     152.261 137.947  93.951  1.00  0.00     0.010 A 
ATOM      9  S   UNL     1     150.862 139.170  90.514  1.00  0.00    -0.128 S 
ATOM     10  Cl  UNL     1     151.982 142.164  92.160  1.00  0.00    -0.083 Cl
ENDROOT
BRANCH   1  11
ATOM     11  C   UNL     1     150.113 136.472  89.602  1.00  0.00     0.261 C 
ATOM     12  N   UNL     1     149.565 136.966  88.353  1.00  0.00    -0.347 N 
ATOM     13  O   UNL     1     150.104 135.309  89.828  1.00  0.00    -0.268 OA
ATOM     14  H   UNL     1     149.566 137.931  88.158  1.00  0.00     0.164 HD
BRANCH  12  15
ATOM     15  C   UNL     1     149.005 136.008  87.374  1.00  0.00     0.099 C 
ATOM     16  C   UNL     1     149.961 135.778  86.295  1.00  0.00     0.015 C 
ATOM     17  C   UNL     1     147.713 136.580  86.758  1.00  0.00     0.109 C 
ATOM     18  C   UNL     1     149.369 134.882  85.341  1.00  0.00     0.021 C 
ATOM     19  C   UNL     1     150.219 137.054  85.630  1.00  0.00     0.021 C 
ATOM     20  N   UNL     1     147.817 136.685  85.369  1.00  0.00    -0.301 NA
ATOM     21  C   UNL     1     148.085 135.452  84.814  1.00  0.00     0.085 C 
ATOM     22  C   UNL     1     148.859 137.584  85.035  1.00  0.00     0.085 C 
ENDBRANCH  12  15
ENDBRANCH   1  11
TORSDOF 2
ENDMDL
MODEL 19
REMARK VINA RESULT:    -4.797     10.642     11.315
REMARK INTER + INTRA:          -5.592
REMARK INTER:                  -5.248
REMARK INTRA:                  -0.344
REMARK UNBOUND:                -0.234
REMARK SMILES O=C(N[C@H]1CN2CCC1CC2)c1cc2cccc(Cl)c2s1
REMARK SMILES IDX 12 1 13 2 14 3 20 4 18 5 17 6 16 7 15 8 21 9 19 10 2 11 3 12
REMARK SMILES IDX 1 13 4 15 9 16 5 17 8 18 10 19 6 20 7 21 11 22
REMARK H PARENT 3 14
ROOT
ATOM      1  C   UNL     1     150.664 137.870  90.489  1.00  0.00     0.093 A 
ATOM      2  C   UNL     1     150.989 139.145  90.177  1.00  0.00     0.034 A 
ATOM      3  C   UNL     1     151.479 140.020  91.203  1.00  0.00    -0.005 A 
ATOM      4  C   UNL     1     151.566 139.390  92.493  1.00  0.00     0.054 A 
ATOM      5  C   UNL     1     152.020 140.108  93.573  1.00  0.00     0.058 A 
ATOM      6  C   UNL     1     152.396 141.445  93.412  1.00  0.00     0.022 A 
ATOM      7  C   UNL     1     152.310 142.058  92.150  1.00  0.00     0.002 A 
ATOM      8  C   UNL     1     151.848 141.331  91.052  1.00  0.00     0.010 A 
ATOM      9  S   UNL     1     150.979 137.696  92.192  1.00  0.00    -0.128 S 
ATOM     10  Cl  UNL     1     152.130 139.336  95.177  1.00  0.00    -0.083 Cl
ENDROOT
BRANCH   1  11
ATOM     11  C   UNL     1     150.128 136.817  89.513  1.00  0.00     0.261 C 
ATOM     12  N   UNL     1     149.486 137.217  88.276  1.00  0.00    -0.347 N 
ATOM     13  O   UNL     1     150.236 135.667  89.774  1.00  0.00    -0.268 OA
ATOM     14  H   UNL     1     149.390 138.170  88.052  1.00  0.00     0.164 HD
BRANCH  12  15
ATOM     15  C   UNL     1     148.977 136.179  87.351  1.00  0.00     0.099 C 
ATOM     16  C   UNL     1     149.933 135.960  86.269  1.00  0.00     0.015 C 
ATOM     17  C   UNL     1     147.643 136.638  86.729  1.00  0.00     0.109 C 
ATOM     18  C   UNL     1     149.389 134.984  85.368  1.00  0.00     0.021 C 
ATOM     19  C   UNL     1     150.100 137.216  85.542  1.00  0.00     0.021 C 
ATOM     20  N   UNL     1     147.724 136.682  85.334  1.00  0.00    -0.301 NA
ATOM     21  C   UNL     1     148.064 135.444  84.834  1.00  0.00     0.085 C 
ATOM     22  C   UNL     1     148.702 137.630  84.943  1.00  0.00     0.085 C 
ENDBRANCH  12  15
ENDBRANCH   1  11
TORSDOF 2
ENDMDL
MODEL 20
REMARK VINA RESULT:    -4.793      5.460      7.304
REMARK INTER + INTRA:          -5.588
REMARK INTER:                  -5.261
REMARK INTRA:                  -0.327
REMARK UNBOUND:                -0.234
REMARK SMILES O=C(N[C@H]1CN2CCC1CC2)c1cc2cccc(Cl)c2s1
REMARK SMILES IDX 12 1 13 2 14 3 20 4 18 5 17 6 16 7 15 8 21 9 19 10 2 11 3 12
REMARK SMILES IDX 1 13 4 15 9 16 5 17 8 18 10 19 6 20 7 21 11 22
REMARK H PARENT 3 14
ROOT
ATOM      1  C   UNL     1     143.752 143.480  97.064  1.00  0.00     0.093 A 
ATOM      2  C   UNL     1     144.266 142.542  96.235  1.00  0.00     0.034 A 
ATOM      3  C   UNL     1     143.406 141.524  95.703  1.00  0.00    -0.005 A 
ATOM      4  C   UNL     1     142.042 141.646  96.144  1.00  0.00     0.054 A 
ATOM      5  C   UNL     1     141.104 140.739  95.713  1.00  0.00     0.058 A 
ATOM      6  C   UNL     1     141.479 139.705  94.850  1.00  0.00     0.022 A 
ATOM      7  C   UNL     1     142.813 139.589  94.422  1.00  0.00     0.002 A 
ATOM      8  C   UNL     1     143.768 140.508  94.858  1.00  0.00     0.010 A 
ATOM      9  S   UNL     1     142.060 143.108  97.224  1.00  0.00    -0.128 S 
ATOM     10  Cl  UNL     1     139.410 140.879  96.254  1.00  0.00    -0.083 Cl
ENDROOT
BRANCH   1  11
ATOM     11  C   UNL     1     144.535 144.627  97.714  1.00  0.00     0.261 C 
ATOM     12  N   UNL     1     145.871 144.960  97.259  1.00  0.00    -0.347 N 
ATOM     13  O   UNL     1     144.044 145.244  98.598  1.00  0.00    -0.268 OA
ATOM     14  H   UNL     1     146.286 144.450  96.526  1.00  0.00     0.164 HD
BRANCH  12  15
ATOM     15  C   UNL     1     146.604 146.072  97.904  1.00  0.00     0.099 C 
ATOM     16  C   UNL     1     146.490 147.282  97.096  1.00  0.00     0.015 C 
ATOM     17  C   UNL     1     148.099 145.715  98.026  1.00  0.00     0.109 C 
ATOM     18  C   UNL     1     147.249 148.326  97.725  1.00  0.00     0.021 C 
ATOM     19  C   UNL     1     147.073 147.015  95.783  1.00  0.00     0.021 C 
ATOM     20  N   UNL     1     148.899 146.651  97.367  1.00  0.00    -0.301 NA
ATOM     21  C   UNL     1     148.682 147.912  97.878  1.00  0.00     0.085 C 
ATOM     22  C   UNL     1     148.593 146.649  95.984  1.00  0.00     0.085 C 
ENDBRANCH  12  15
ENDBRANCH   1  11
TORSDOF 2
ENDMDL
