MODEL 1
REMARK VINA RESULT:   -10.554      0.000      0.000
REMARK INTER + INTRA:         -13.232
REMARK INTER:                 -12.406
REMARK INTRA:                  -0.827
REMARK UNBOUND:                -0.827
REMARK SMILES NC(=O)c1cccc2cn(-c3ccc([C@@H]4CCCNC4)cc3)nc12
REMARK SMILES IDX 10 1 23 2 8 3 9 4 24 5 4 6 7 7 5 8 6 9 2 10 3 11 1 12 11 15
REMARK SMILES IDX 12 16 22 17 13 18 21 19 14 20 15 21 16 22 20 23 17 24 19 25
REMARK SMILES IDX 18 26
REMARK H PARENT 1 13 1 14 19 27
ROOT
ATOM      1  N   UNL     1       5.554   3.442  40.462  1.00  0.00    -0.240 N 
ATOM      2  N   UNL     1       4.769   3.417  39.367  1.00  0.00    -0.167 NA
ATOM      3  C   UNL     1       5.294   5.534  40.001  1.00  0.00     0.021 A 
ATOM      4  C   UNL     1       5.901   4.691  40.888  1.00  0.00     0.123 A 
ATOM      5  C   UNL     1       4.586   4.711  39.050  1.00  0.00     0.105 A 
ATOM      6  C   UNL     1       3.854   5.298  38.001  1.00  0.00     0.067 A 
ATOM      7  C   UNL     1       5.361   6.921  40.027  1.00  0.00     0.012 A 
ATOM      8  C   UNL     1       3.902   6.709  38.000  1.00  0.00     0.016 A 
ATOM      9  C   UNL     1       4.620   7.481  38.967  1.00  0.00     0.002 A 
ENDROOT
BRANCH   6  10
ATOM     10  C   UNL     1       3.122   4.535  37.014  1.00  0.00     0.250 C 
ATOM     11  O   UNL     1       2.051   4.948  36.528  1.00  0.00    -0.269 OA
ATOM     12  N   UNL     1       3.659   3.316  36.598  1.00  0.00    -0.366 N 
ATOM     13  H   UNL     1       4.529   2.937  36.955  1.00  0.00     0.159 HD
ATOM     14  H   UNL     1       3.178   2.755  35.902  1.00  0.00     0.159 HD
ENDBRANCH   6  10
BRANCH   1  15
ATOM     15  C   UNL     1       5.942   2.258  41.062  1.00  0.00     0.065 A 
ATOM     16  C   UNL     1       5.811   2.100  42.442  1.00  0.00     0.028 A 
ATOM     17  C   UNL     1       6.463   1.221  40.287  1.00  0.00     0.028 A 
ATOM     18  C   UNL     1       6.202   0.906  43.047  1.00  0.00     0.006 A 
ATOM     19  C   UNL     1       6.853   0.027  40.893  1.00  0.00     0.006 A 
ATOM     20  C   UNL     1       6.723  -0.131  42.273  1.00  0.00    -0.043 A 
BRANCH  20  21
ATOM     21  C   UNL     1       7.150  -1.430  42.932  1.00  0.00     0.033 C 
ATOM     22  C   UNL     1       7.956  -1.180  44.217  1.00  0.00     0.011 C 
ATOM     23  C   UNL     1       7.935  -2.337  41.966  1.00  0.00     0.089 C 
ATOM     24  C   UNL     1       8.411  -2.505  44.824  1.00  0.00     0.016 C 
ATOM     25  N   UNL     1       8.314  -3.598  42.610  1.00  0.00    -0.316 NA
ATOM     26  C   UNL     1       9.139  -3.367  43.796  1.00  0.00     0.081 C 
ATOM     27  H   UNL     1       8.833  -4.171  41.945  1.00  0.00     0.122 HD
ENDBRANCH  20  21
ENDBRANCH   1  15
TORSDOF 3
ENDMDL
MODEL 2
REMARK VINA RESULT:    -9.854      3.543      4.433
REMARK INTER + INTRA:         -12.409
REMARK INTER:                 -11.612
REMARK INTRA:                  -0.797
REMARK UNBOUND:                -0.827
REMARK SMILES NC(=O)c1cccc2cn(-c3ccc([C@@H]4CCCNC4)cc3)nc12
REMARK SMILES IDX 10 1 23 2 8 3 9 4 24 5 4 6 7 7 5 8 6 9 2 10 3 11 1 12 11 15
REMARK SMILES IDX 12 16 22 17 13 18 21 19 14 20 15 21 16 22 20 23 17 24 19 25
REMARK SMILES IDX 18 26
REMARK H PARENT 1 13 1 14 19 27
ROOT
ATOM      1  N   UNL     1       5.245   2.072  38.972  1.00  0.00    -0.240 N 
ATOM      2  N   UNL     1       4.493   2.997  38.344  1.00  0.00    -0.167 NA
ATOM      3  C   UNL     1       5.579   3.851  40.148  1.00  0.00     0.021 A 
ATOM      4  C   UNL     1       5.922   2.531  40.065  1.00  0.00     0.123 A 
ATOM      5  C   UNL     1       4.679   4.125  39.054  1.00  0.00     0.105 A 
ATOM      6  C   UNL     1       4.146   5.415  38.871  1.00  0.00     0.067 A 
ATOM      7  C   UNL     1       6.027   4.745  41.112  1.00  0.00     0.012 A 
ATOM      8  C   UNL     1       4.583   6.347  39.837  1.00  0.00     0.016 A 
ATOM      9  C   UNL     1       5.480   6.026  40.905  1.00  0.00     0.002 A 
ENDROOT
BRANCH   6  10
ATOM     10  C   UNL     1       3.239   5.760  37.798  1.00  0.00     0.250 C 
ATOM     11  O   UNL     1       3.165   6.921  37.350  1.00  0.00    -0.269 OA
ATOM     12  N   UNL     1       2.451   4.745  37.255  1.00  0.00    -0.366 N 
ATOM     13  H   UNL     1       2.477   3.784  37.577  1.00  0.00     0.159 HD
ATOM     14  H   UNL     1       1.807   4.946  36.497  1.00  0.00     0.159 HD
ENDBRANCH   6  10
BRANCH   1  15
ATOM     15  C   UNL     1       5.286   0.775  38.496  1.00  0.00     0.065 A 
ATOM     16  C   UNL     1       6.208  -0.132  39.019  1.00  0.00     0.028 A 
ATOM     17  C   UNL     1       4.402   0.371  37.494  1.00  0.00     0.028 A 
ATOM     18  C   UNL     1       6.248  -1.441  38.540  1.00  0.00     0.006 A 
ATOM     19  C   UNL     1       4.442  -0.938  37.015  1.00  0.00     0.006 A 
ATOM     20  C   UNL     1       5.365  -1.844  37.538  1.00  0.00    -0.043 A 
BRANCH  20  21
ATOM     21  C   UNL     1       5.410  -3.269  37.015  1.00  0.00     0.033 C 
ATOM     22  C   UNL     1       4.827  -4.267  38.029  1.00  0.00     0.011 C 
ATOM     23  C   UNL     1       6.832  -3.687  36.596  1.00  0.00     0.089 C 
ATOM     24  C   UNL     1       4.934  -5.692  37.492  1.00  0.00     0.016 C 
ATOM     25  N   UNL     1       6.850  -5.054  36.068  1.00  0.00    -0.316 NA
ATOM     26  C   UNL     1       6.360  -6.016  37.054  1.00  0.00     0.081 C 
ATOM     27  H   UNL     1       7.804  -5.298  35.803  1.00  0.00     0.122 HD
ENDBRANCH  20  21
ENDBRANCH   1  15
TORSDOF 3
ENDMDL
MODEL 3
REMARK VINA RESULT:    -9.792      1.690      2.594
REMARK INTER + INTRA:         -12.336
REMARK INTER:                 -11.522
REMARK INTRA:                  -0.814
REMARK UNBOUND:                -0.827
REMARK SMILES NC(=O)c1cccc2cn(-c3ccc([C@@H]4CCCNC4)cc3)nc12
REMARK SMILES IDX 10 1 23 2 8 3 9 4 24 5 4 6 7 7 5 8 6 9 2 10 3 11 1 12 11 15
REMARK SMILES IDX 12 16 22 17 13 18 21 19 14 20 15 21 16 22 20 23 17 24 19 25
REMARK SMILES IDX 18 26
REMARK H PARENT 1 13 1 14 19 27
ROOT
ATOM      1  N   UNL     1       5.202   2.305  39.405  1.00  0.00    -0.240 N 
ATOM      2  N   UNL     1       5.311   3.560  39.881  1.00  0.00    -0.167 NA
ATOM      3  C   UNL     1       4.025   3.458  38.011  1.00  0.00     0.021 A 
ATOM      4  C   UNL     1       4.439   2.184  38.280  1.00  0.00     0.123 A 
ATOM      5  C   UNL     1       4.585   4.310  39.032  1.00  0.00     0.105 A 
ATOM      6  C   UNL     1       4.335   5.695  39.025  1.00  0.00     0.067 A 
ATOM      7  C   UNL     1       3.215   3.839  36.949  1.00  0.00     0.012 A 
ATOM      8  C   UNL     1       3.514   6.115  37.955  1.00  0.00     0.016 A 
ATOM      9  C   UNL     1       2.981   5.228  36.966  1.00  0.00     0.002 A 
ENDROOT
BRANCH   6  10
ATOM     10  C   UNL     1       4.863   6.607  40.016  1.00  0.00     0.250 C 
ATOM     11  O   UNL     1       4.115   7.263  40.768  1.00  0.00    -0.269 OA
ATOM     12  N   UNL     1       6.249   6.724  40.126  1.00  0.00    -0.366 N 
ATOM     13  H   UNL     1       6.901   6.210  39.544  1.00  0.00     0.159 HD
ATOM     14  H   UNL     1       6.658   7.349  40.813  1.00  0.00     0.159 HD
ENDBRANCH   6  10
BRANCH   1  15
ATOM     15  C   UNL     1       5.839   1.262  40.051  1.00  0.00     0.065 A 
ATOM     16  C   UNL     1       5.926   1.252  41.443  1.00  0.00     0.028 A 
ATOM     17  C   UNL     1       6.396   0.218  39.310  1.00  0.00     0.028 A 
ATOM     18  C   UNL     1       6.568   0.199  42.094  1.00  0.00     0.006 A 
ATOM     19  C   UNL     1       7.038  -0.834  39.961  1.00  0.00     0.006 A 
ATOM     20  C   UNL     1       7.125  -0.844  41.354  1.00  0.00    -0.043 A 
BRANCH  20  21
ATOM     21  C   UNL     1       7.826  -1.989  42.062  1.00  0.00     0.033 C 
ATOM     22  C   UNL     1       7.287  -2.193  43.488  1.00  0.00     0.011 C 
ATOM     23  C   UNL     1       9.355  -1.808  42.080  1.00  0.00     0.089 C 
ATOM     24  C   UNL     1       8.048  -3.317  44.187  1.00  0.00     0.016 C 
ATOM     25  N   UNL     1      10.016  -2.936  42.742  1.00  0.00    -0.316 NA
ATOM     26  C   UNL     1       9.556  -3.091  44.122  1.00  0.00     0.081 C 
ATOM     27  H   UNL     1      11.025  -2.782  42.738  1.00  0.00     0.122 HD
ENDBRANCH  20  21
ENDBRANCH   1  15
TORSDOF 3
ENDMDL
MODEL 4
REMARK VINA RESULT:    -9.666      4.273      5.138
REMARK INTER + INTRA:         -12.188
REMARK INTER:                 -11.383
REMARK INTRA:                  -0.805
REMARK UNBOUND:                -0.827
REMARK SMILES NC(=O)c1cccc2cn(-c3ccc([C@@H]4CCCNC4)cc3)nc12
REMARK SMILES IDX 10 1 23 2 8 3 9 4 24 5 4 6 7 7 5 8 6 9 2 10 3 11 1 12 11 15
REMARK SMILES IDX 12 16 22 17 13 18 21 19 14 20 15 21 16 22 20 23 17 24 19 25
REMARK SMILES IDX 18 26
REMARK H PARENT 1 13 1 14 19 27
ROOT
ATOM      1  N   UNL     1       4.325   2.147  39.333  1.00  0.00    -0.240 N 
ATOM      2  N   UNL     1       3.946   3.206  38.593  1.00  0.00    -0.167 NA
ATOM      3  C   UNL     1       5.334   3.797  40.292  1.00  0.00     0.021 A 
ATOM      4  C   UNL     1       5.161   2.443  40.370  1.00  0.00     0.123 A 
ATOM      5  C   UNL     1       4.560   4.258  39.165  1.00  0.00     0.105 A 
ATOM      6  C   UNL     1       4.536   5.623  38.824  1.00  0.00     0.067 A 
ATOM      7  C   UNL     1       6.115   4.564  41.146  1.00  0.00     0.012 A 
ATOM      8  C   UNL     1       5.321   6.431  39.676  1.00  0.00     0.016 A 
ATOM      9  C   UNL     1       6.072   5.924  40.783  1.00  0.00     0.002 A 
ENDROOT
BRANCH   6  10
ATOM     10  C   UNL     1       3.783   6.154  37.708  1.00  0.00     0.250 C 
ATOM     11  O   UNL     1       4.221   7.090  37.009  1.00  0.00    -0.269 OA
ATOM     12  N   UNL     1       2.547   5.577  37.418  1.00  0.00    -0.366 N 
ATOM     13  H   UNL     1       2.149   4.811  37.950  1.00  0.00     0.159 HD
ATOM     14  H   UNL     1       1.992   5.918  36.639  1.00  0.00     0.159 HD
ENDBRANCH   6  10
BRANCH   1  15
ATOM     15  C   UNL     1       3.866   0.882  39.017  1.00  0.00     0.065 A 
ATOM     16  C   UNL     1       4.194   0.307  37.789  1.00  0.00     0.028 A 
ATOM     17  C   UNL     1       3.076   0.178  39.927  1.00  0.00     0.028 A 
ATOM     18  C   UNL     1       3.731  -0.969  37.470  1.00  0.00     0.006 A 
ATOM     19  C   UNL     1       2.614  -1.099  39.609  1.00  0.00     0.006 A 
ATOM     20  C   UNL     1       2.941  -1.673  38.380  1.00  0.00    -0.043 A 
BRANCH  20  21
ATOM     21  C   UNL     1       2.436  -3.061  38.032  1.00  0.00     0.033 C 
ATOM     22  C   UNL     1       0.924  -3.196  38.276  1.00  0.00     0.011 C 
ATOM     23  C   UNL     1       3.208  -4.162  38.784  1.00  0.00     0.089 C 
ATOM     24  C   UNL     1       0.461  -4.617  37.965  1.00  0.00     0.016 C 
ATOM     25  N   UNL     1       2.726  -5.496  38.415  1.00  0.00    -0.316 NA
ATOM     26  C   UNL     1       1.302  -5.651  38.709  1.00  0.00     0.081 C 
ATOM     27  H   UNL     1       3.256  -6.198  38.932  1.00  0.00     0.122 HD
ENDBRANCH  20  21
ENDBRANCH   1  15
TORSDOF 3
ENDMDL
MODEL 5
REMARK VINA RESULT:    -9.579      4.557      8.582
REMARK INTER + INTRA:         -12.085
REMARK INTER:                 -11.268
REMARK INTRA:                  -0.817
REMARK UNBOUND:                -0.827
REMARK SMILES NC(=O)c1cccc2cn(-c3ccc([C@@H]4CCCNC4)cc3)nc12
REMARK SMILES IDX 10 1 23 2 8 3 9 4 24 5 4 6 7 7 5 8 6 9 2 10 3 11 1 12 11 15
REMARK SMILES IDX 12 16 22 17 13 18 21 19 14 20 15 21 16 22 20 23 17 24 19 25
REMARK SMILES IDX 18 26
REMARK H PARENT 1 13 1 14 19 27
ROOT
ATOM      1  N   UNL     1       4.387  -1.062  38.526  1.00  0.00    -0.240 N 
ATOM      2  N   UNL     1       5.331  -1.781  37.888  1.00  0.00    -0.167 NA
ATOM      3  C   UNL     1       3.651  -3.085  38.686  1.00  0.00     0.021 A 
ATOM      4  C   UNL     1       3.351  -1.796  39.027  1.00  0.00     0.123 A 
ATOM      5  C   UNL     1       4.902  -3.053  37.968  1.00  0.00     0.105 A 
ATOM      6  C   UNL     1       5.479  -4.241  37.482  1.00  0.00     0.067 A 
ATOM      7  C   UNL     1       2.880  -4.201  38.984  1.00  0.00     0.012 A 
ATOM      8  C   UNL     1       4.718  -5.396  37.770  1.00  0.00     0.016 A 
ATOM      9  C   UNL     1       3.480  -5.375  38.486  1.00  0.00     0.002 A 
ENDROOT
BRANCH   6  10
ATOM     10  C   UNL     1       6.729  -4.283  36.755  1.00  0.00     0.250 C 
ATOM     11  O   UNL     1       6.930  -5.112  35.845  1.00  0.00    -0.269 OA
ATOM     12  N   UNL     1       7.711  -3.350  37.087  1.00  0.00    -0.366 N 
ATOM     13  H   UNL     1       7.597  -2.652  37.813  1.00  0.00     0.159 HD
ATOM     14  H   UNL     1       8.599  -3.344  36.596  1.00  0.00     0.159 HD
ENDBRANCH   6  10
BRANCH   1  15
ATOM     15  C   UNL     1       4.515   0.310  38.632  1.00  0.00     0.065 A 
ATOM     16  C   UNL     1       5.165   0.867  39.734  1.00  0.00     0.028 A 
ATOM     17  C   UNL     1       3.997   1.139  37.636  1.00  0.00     0.028 A 
ATOM     18  C   UNL     1       5.296   2.251  39.840  1.00  0.00     0.006 A 
ATOM     19  C   UNL     1       4.127   2.523  37.743  1.00  0.00     0.006 A 
ATOM     20  C   UNL     1       4.777   3.080  38.845  1.00  0.00    -0.043 A 
BRANCH  20  21
ATOM     21  C   UNL     1       4.917   4.587  38.962  1.00  0.00     0.033 C 
ATOM     22  C   UNL     1       5.427   5.007  40.350  1.00  0.00     0.011 C 
ATOM     23  C   UNL     1       3.605   5.318  38.621  1.00  0.00     0.089 C 
ATOM     24  C   UNL     1       5.508   6.528  40.448  1.00  0.00     0.016 C 
ATOM     25  N   UNL     1       3.768   6.771  38.711  1.00  0.00    -0.316 NA
ATOM     26  C   UNL     1       4.187   7.182  40.051  1.00  0.00     0.081 C 
ATOM     27  H   UNL     1       2.882   7.222  38.482  1.00  0.00     0.122 HD
ENDBRANCH  20  21
ENDBRANCH   1  15
TORSDOF 3
ENDMDL
MODEL 6
REMARK VINA RESULT:    -9.573      4.556      8.634
REMARK INTER + INTRA:         -12.079
REMARK INTER:                 -11.257
REMARK INTRA:                  -0.822
REMARK UNBOUND:                -0.827
REMARK SMILES NC(=O)c1cccc2cn(-c3ccc([C@@H]4CCCNC4)cc3)nc12
REMARK SMILES IDX 10 1 23 2 8 3 9 4 24 5 4 6 7 7 5 8 6 9 2 10 3 11 1 12 11 15
REMARK SMILES IDX 12 16 22 17 13 18 21 19 14 20 15 21 16 22 20 23 17 24 19 25
REMARK SMILES IDX 18 26
REMARK H PARENT 1 13 1 14 19 27
ROOT
ATOM      1  N   UNL     1       5.515  -1.151  38.135  1.00  0.00    -0.240 N 
ATOM      2  N   UNL     1       4.536  -2.076  38.151  1.00  0.00    -0.167 NA
ATOM      3  C   UNL     1       6.563  -2.977  37.660  1.00  0.00     0.021 A 
ATOM      4  C   UNL     1       6.757  -1.637  37.844  1.00  0.00     0.123 A 
ATOM      5  C   UNL     1       5.157  -3.233  37.857  1.00  0.00     0.105 A 
ATOM      6  C   UNL     1       4.643  -4.537  37.732  1.00  0.00     0.067 A 
ATOM      7  C   UNL     1       7.550  -3.901  37.343  1.00  0.00     0.012 A 
ATOM      8  C   UNL     1       5.623  -5.501  37.409  1.00  0.00     0.016 A 
ATOM      9  C   UNL     1       7.008  -5.196  37.224  1.00  0.00     0.002 A 
ENDROOT
BRANCH   6  10
ATOM     10  C   UNL     1       3.246  -4.866  37.917  1.00  0.00     0.250 C 
ATOM     11  O   UNL     1       2.869  -5.640  38.819  1.00  0.00    -0.269 OA
ATOM     12  N   UNL     1       2.315  -4.275  37.062  1.00  0.00    -0.366 N 
ATOM     13  H   UNL     1       2.568  -3.635  36.317  1.00  0.00     0.159 HD
ATOM     14  H   UNL     1       1.326  -4.476  37.164  1.00  0.00     0.159 HD
ENDBRANCH   6  10
BRANCH   1  15
ATOM     15  C   UNL     1       5.220   0.174  38.399  1.00  0.00     0.065 A 
ATOM     16  C   UNL     1       5.691   0.775  39.566  1.00  0.00     0.028 A 
ATOM     17  C   UNL     1       4.451   0.910  37.496  1.00  0.00     0.028 A 
ATOM     18  C   UNL     1       5.394   2.111  39.831  1.00  0.00     0.006 A 
ATOM     19  C   UNL     1       4.153   2.247  37.762  1.00  0.00     0.006 A 
ATOM     20  C   UNL     1       4.625   2.847  38.930  1.00  0.00    -0.043 A 
BRANCH  20  21
ATOM     21  C   UNL     1       4.299   4.301  39.219  1.00  0.00     0.033 C 
ATOM     22  C   UNL     1       3.958   5.076  37.936  1.00  0.00     0.011 C 
ATOM     23  C   UNL     1       5.430   5.004  39.994  1.00  0.00     0.089 C 
ATOM     24  C   UNL     1       3.685   6.543  38.259  1.00  0.00     0.016 C 
ATOM     25  N   UNL     1       5.087   6.397  40.289  1.00  0.00    -0.316 NA
ATOM     26  C   UNL     1       4.827   7.156  39.065  1.00  0.00     0.081 C 
ATOM     27  H   UNL     1       5.856   6.832  40.798  1.00  0.00     0.122 HD
ENDBRANCH  20  21
ENDBRANCH   1  15
TORSDOF 3
ENDMDL
MODEL 7
REMARK VINA RESULT:    -9.570      5.025      9.121
REMARK INTER + INTRA:         -12.075
REMARK INTER:                 -11.238
REMARK INTRA:                  -0.837
REMARK UNBOUND:                -0.827
REMARK SMILES NC(=O)c1cccc2cn(-c3ccc([C@@H]4CCCNC4)cc3)nc12
REMARK SMILES IDX 10 1 23 2 8 3 9 4 24 5 4 6 7 7 5 8 6 9 2 10 3 11 1 12 11 15
REMARK SMILES IDX 12 16 22 17 13 18 21 19 14 20 15 21 16 22 20 23 17 24 19 25
REMARK SMILES IDX 18 26
REMARK H PARENT 1 13 1 14 19 27
ROOT
ATOM      1  N   UNL     1       3.247  -1.740  39.313  1.00  0.00    -0.240 N 
ATOM      2  N   UNL     1       2.928  -2.159  40.553  1.00  0.00    -0.167 NA
ATOM      3  C   UNL     1       2.891  -3.850  39.036  1.00  0.00     0.021 A 
ATOM      4  C   UNL     1       3.241  -2.716  38.359  1.00  0.00     0.123 A 
ATOM      5  C   UNL     1       2.698  -3.478  40.417  1.00  0.00     0.105 A 
ATOM      6  C   UNL     1       2.327  -4.442  41.373  1.00  0.00     0.067 A 
ATOM      7  C   UNL     1       2.753  -5.115  38.479  1.00  0.00     0.012 A 
ATOM      8  C   UNL     1       2.178  -5.740  40.837  1.00  0.00     0.016 A 
ATOM      9  C   UNL     1       2.382  -6.058  39.457  1.00  0.00     0.002 A 
ENDROOT
BRANCH   6  10
ATOM     10  C   UNL     1       2.117  -4.139  42.772  1.00  0.00     0.250 C 
ATOM     11  O   UNL     1       1.167  -4.630  43.413  1.00  0.00    -0.269 OA
ATOM     12  N   UNL     1       3.026  -3.288  43.401  1.00  0.00    -0.366 N 
ATOM     13  H   UNL     1       3.818  -2.867  42.928  1.00  0.00     0.159 HD
ATOM     14  H   UNL     1       2.916  -3.057  44.383  1.00  0.00     0.159 HD
ENDBRANCH   6  10
BRANCH   1  15
ATOM     15  C   UNL     1       3.547  -0.409  39.089  1.00  0.00     0.065 A 
ATOM     16  C   UNL     1       4.226  -0.032  37.930  1.00  0.00     0.028 A 
ATOM     17  C   UNL     1       3.169   0.558  40.021  1.00  0.00     0.028 A 
ATOM     18  C   UNL     1       4.528   1.311  37.704  1.00  0.00     0.006 A 
ATOM     19  C   UNL     1       3.470   1.901  39.795  1.00  0.00     0.006 A 
ATOM     20  C   UNL     1       4.150   2.278  38.636  1.00  0.00    -0.043 A 
BRANCH  20  21
ATOM     21  C   UNL     1       4.480   3.739  38.391  1.00  0.00     0.033 C 
ATOM     22  C   UNL     1       4.796   4.480  39.700  1.00  0.00     0.011 C 
ATOM     23  C   UNL     1       3.363   4.461  37.614  1.00  0.00     0.089 C 
ATOM     24  C   UNL     1       5.073   5.955  39.422  1.00  0.00     0.016 C 
ATOM     25  N   UNL     1       3.711   5.862  37.363  1.00  0.00    -0.316 NA
ATOM     26  C   UNL     1       3.946   6.588  38.610  1.00  0.00     0.081 C 
ATOM     27  H   UNL     1       2.951   6.309  36.851  1.00  0.00     0.122 HD
ENDBRANCH  20  21
ENDBRANCH   1  15
TORSDOF 3
ENDMDL
MODEL 8
REMARK VINA RESULT:    -9.426      5.008      8.834
REMARK INTER + INTRA:         -11.906
REMARK INTER:                 -11.153
REMARK INTRA:                  -0.754
REMARK UNBOUND:                -0.827
REMARK SMILES NC(=O)c1cccc2cn(-c3ccc([C@@H]4CCCNC4)cc3)nc12
REMARK SMILES IDX 10 1 23 2 8 3 9 4 24 5 4 6 7 7 5 8 6 9 2 10 3 11 1 12 11 15
REMARK SMILES IDX 12 16 22 17 13 18 21 19 14 20 15 21 16 22 20 23 17 24 19 25
REMARK SMILES IDX 18 26
REMARK H PARENT 1 13 1 14 19 27
ROOT
ATOM      1  N   UNL     1       3.167  -1.358  39.870  1.00  0.00    -0.240 N 
ATOM      2  N   UNL     1       3.208  -2.343  38.951  1.00  0.00    -0.167 NA
ATOM      3  C   UNL     1       2.622  -3.109  41.008  1.00  0.00     0.021 A 
ATOM      4  C   UNL     1       2.820  -1.762  41.126  1.00  0.00     0.123 A 
ATOM      5  C   UNL     1       2.871  -3.455  39.629  1.00  0.00     0.105 A 
ATOM      6  C   UNL     1       2.747  -4.786  39.192  1.00  0.00     0.067 A 
ATOM      7  C   UNL     1       2.250  -3.966  42.035  1.00  0.00     0.012 A 
ATOM      8  C   UNL     1       2.370  -5.684  40.215  1.00  0.00     0.016 A 
ATOM      9  C   UNL     1       2.133  -5.290  41.570  1.00  0.00     0.002 A 
ENDROOT
BRANCH   6  10
ATOM     10  C   UNL     1       2.981  -5.203  37.826  1.00  0.00     0.250 C 
ATOM     11  O   UNL     1       3.985  -5.872  37.508  1.00  0.00    -0.269 OA
ATOM     12  N   UNL     1       2.036  -4.851  36.863  1.00  0.00    -0.366 N 
ATOM     13  H   UNL     1       1.201  -4.314  37.068  1.00  0.00     0.159 HD
ATOM     14  H   UNL     1       2.162  -5.130  35.895  1.00  0.00     0.159 HD
ENDBRANCH   6  10
BRANCH   1  15
ATOM     15  C   UNL     1       3.466  -0.058  39.505  1.00  0.00     0.065 A 
ATOM     16  C   UNL     1       3.038   1.005  40.299  1.00  0.00     0.028 A 
ATOM     17  C   UNL     1       4.198   0.189  38.343  1.00  0.00     0.028 A 
ATOM     18  C   UNL     1       3.341   2.316  39.932  1.00  0.00     0.006 A 
ATOM     19  C   UNL     1       4.501   1.500  37.975  1.00  0.00     0.006 A 
ATOM     20  C   UNL     1       4.072   2.564  38.770  1.00  0.00    -0.043 A 
BRANCH  20  21
ATOM     21  C   UNL     1       4.400   3.991  38.369  1.00  0.00     0.033 C 
ATOM     22  C   UNL     1       4.735   4.864  39.588  1.00  0.00     0.011 C 
ATOM     23  C   UNL     1       3.274   4.631  37.535  1.00  0.00     0.089 C 
ATOM     24  C   UNL     1       5.010   6.301  39.153  1.00  0.00     0.016 C 
ATOM     25  N   UNL     1       3.620   5.996  37.133  1.00  0.00    -0.316 NA
ATOM     26  C   UNL     1       3.873   6.849  38.294  1.00  0.00     0.081 C 
ATOM     27  H   UNL     1       2.854   6.389  36.587  1.00  0.00     0.122 HD
ENDBRANCH  20  21
ENDBRANCH   1  15
TORSDOF 3
ENDMDL
MODEL 9
REMARK VINA RESULT:    -9.393      5.035      7.282
REMARK INTER + INTRA:         -11.867
REMARK INTER:                 -11.028
REMARK INTRA:                  -0.839
REMARK UNBOUND:                -0.827
REMARK SMILES NC(=O)c1cccc2cn(-c3ccc([C@@H]4CCCNC4)cc3)nc12
REMARK SMILES IDX 10 1 23 2 8 3 9 4 24 5 4 6 7 7 5 8 6 9 2 10 3 11 1 12 11 15
REMARK SMILES IDX 12 16 22 17 13 18 21 19 14 20 15 21 16 22 20 23 17 24 19 25
REMARK SMILES IDX 18 26
REMARK H PARENT 1 13 1 14 19 27
ROOT
ATOM      1  N   UNL     1       2.741  -0.474  40.247  1.00  0.00    -0.240 N 
ATOM      2  N   UNL     1       3.098  -1.550  39.519  1.00  0.00    -0.167 NA
ATOM      3  C   UNL     1       0.863  -1.487  39.919  1.00  0.00     0.021 A 
ATOM      4  C   UNL     1       1.406  -0.385  40.518  1.00  0.00     0.123 A 
ATOM      5  C   UNL     1       1.946  -2.207  39.295  1.00  0.00     0.105 A 
ATOM      6  C   UNL     1       1.700  -3.401  38.591  1.00  0.00     0.067 A 
ATOM      7  C   UNL     1      -0.483  -1.829  39.922  1.00  0.00     0.012 A 
ATOM      8  C   UNL     1       0.339  -3.777  38.577  1.00  0.00     0.016 A 
ATOM      9  C   UNL     1      -0.700  -3.026  39.212  1.00  0.00     0.002 A 
ENDROOT
BRANCH   6  10
ATOM     10  C   UNL     1       2.737  -4.173  37.942  1.00  0.00     0.250 C 
ATOM     11  O   UNL     1       2.620  -4.568  36.765  1.00  0.00    -0.269 OA
ATOM     12  N   UNL     1       3.895  -4.454  38.666  1.00  0.00    -0.366 N 
ATOM     13  H   UNL     1       4.044  -4.152  39.622  1.00  0.00     0.159 HD
ATOM     14  H   UNL     1       4.648  -4.988  38.243  1.00  0.00     0.159 HD
ENDBRANCH   6  10
BRANCH   1  15
ATOM     15  C   UNL     1       3.699   0.433  40.659  1.00  0.00     0.065 A 
ATOM     16  C   UNL     1       4.213   1.364  39.757  1.00  0.00     0.028 A 
ATOM     17  C   UNL     1       4.152   0.418  41.979  1.00  0.00     0.028 A 
ATOM     18  C   UNL     1       5.180   2.279  40.173  1.00  0.00     0.006 A 
ATOM     19  C   UNL     1       5.118   1.333  42.396  1.00  0.00     0.006 A 
ATOM     20  C   UNL     1       5.633   2.264  41.492  1.00  0.00    -0.043 A 
BRANCH  20  21
ATOM     21  C   UNL     1       6.686   3.258  41.945  1.00  0.00     0.033 C 
ATOM     22  C   UNL     1       6.914   3.196  43.464  1.00  0.00     0.011 C 
ATOM     23  C   UNL     1       6.352   4.696  41.504  1.00  0.00     0.089 C 
ATOM     24  C   UNL     1       7.941   4.242  43.890  1.00  0.00     0.016 C 
ATOM     25  N   UNL     1       7.393   5.637  41.925  1.00  0.00    -0.316 NA
ATOM     26  C   UNL     1       7.565   5.631  43.378  1.00  0.00     0.081 C 
ATOM     27  H   UNL     1       7.138   6.576  41.620  1.00  0.00     0.122 HD
ENDBRANCH  20  21
ENDBRANCH   1  15
TORSDOF 3
ENDMDL
MODEL 10
REMARK VINA RESULT:    -9.383      4.708      6.493
REMARK INTER + INTRA:         -11.856
REMARK INTER:                 -11.037
REMARK INTRA:                  -0.819
REMARK UNBOUND:                -0.827
REMARK SMILES NC(=O)c1cccc2cn(-c3ccc([C@@H]4CCCNC4)cc3)nc12
REMARK SMILES IDX 10 1 23 2 8 3 9 4 24 5 4 6 7 7 5 8 6 9 2 10 3 11 1 12 11 15
REMARK SMILES IDX 12 16 22 17 13 18 21 19 14 20 15 21 16 22 20 23 17 24 19 25
REMARK SMILES IDX 18 26
REMARK H PARENT 1 13 1 14 19 27
ROOT
ATOM      1  N   UNL     1       3.024   0.292  40.937  1.00  0.00    -0.240 N 
ATOM      2  N   UNL     1       3.201  -0.497  39.859  1.00  0.00    -0.167 NA
ATOM      3  C   UNL     1       1.076  -0.595  40.655  1.00  0.00     0.021 A 
ATOM      4  C   UNL     1       1.763   0.272  41.458  1.00  0.00     0.123 A 
ATOM      5  C   UNL     1       2.001  -1.068  39.654  1.00  0.00     0.105 A 
ATOM      6  C   UNL     1       1.584  -1.986  38.671  1.00  0.00     0.067 A 
ATOM      7  C   UNL     1      -0.262  -0.940  40.795  1.00  0.00     0.012 A 
ATOM      8  C   UNL     1       0.227  -2.358  38.787  1.00  0.00     0.016 A 
ATOM      9  C   UNL     1      -0.652  -1.858  39.800  1.00  0.00     0.002 A 
ENDROOT
BRANCH   6  10
ATOM     10  C   UNL     1       2.457  -2.501  37.639  1.00  0.00     0.250 C 
ATOM     11  O   UNL     1       2.409  -3.693  37.275  1.00  0.00    -0.269 OA
ATOM     12  N   UNL     1       3.353  -1.618  37.038  1.00  0.00    -0.366 N 
ATOM     13  H   UNL     1       3.429  -0.639  37.291  1.00  0.00     0.159 HD
ATOM     14  H   UNL     1       3.977  -1.940  36.305  1.00  0.00     0.159 HD
ENDBRANCH   6  10
BRANCH   1  15
ATOM     15  C   UNL     1       4.078   1.038  41.429  1.00  0.00     0.065 A 
ATOM     16  C   UNL     1       4.626   2.064  40.660  1.00  0.00     0.028 A 
ATOM     17  C   UNL     1       4.593   0.765  42.698  1.00  0.00     0.028 A 
ATOM     18  C   UNL     1       5.689   2.818  41.158  1.00  0.00     0.006 A 
ATOM     19  C   UNL     1       5.656   1.519  43.196  1.00  0.00     0.006 A 
ATOM     20  C   UNL     1       6.204   2.545  42.425  1.00  0.00    -0.043 A 
BRANCH  20  21
ATOM     21  C   UNL     1       7.362   3.363  42.967  1.00  0.00     0.033 C 
ATOM     22  C   UNL     1       7.208   4.857  42.638  1.00  0.00     0.011 C 
ATOM     23  C   UNL     1       8.724   2.836  42.474  1.00  0.00     0.089 C 
ATOM     24  C   UNL     1       8.413   5.641  43.153  1.00  0.00     0.016 C 
ATOM     25  N   UNL     1       9.830   3.620  43.030  1.00  0.00    -0.316 NA
ATOM     26  C   UNL     1       9.724   5.032  42.662  1.00  0.00     0.081 C 
ATOM     27  H   UNL     1      10.713   3.247  42.682  1.00  0.00     0.122 HD
ENDBRANCH  20  21
ENDBRANCH   1  15
TORSDOF 3
ENDMDL
MODEL 11
REMARK VINA RESULT:    -9.306      5.144      8.563
REMARK INTER + INTRA:         -11.765
REMARK INTER:                 -10.962
REMARK INTRA:                  -0.802
REMARK UNBOUND:                -0.827
REMARK SMILES NC(=O)c1cccc2cn(-c3ccc([C@@H]4CCCNC4)cc3)nc12
REMARK SMILES IDX 10 1 23 2 8 3 9 4 24 5 4 6 7 7 5 8 6 9 2 10 3 11 1 12 11 15
REMARK SMILES IDX 12 16 22 17 13 18 21 19 14 20 15 21 16 22 20 23 17 24 19 25
REMARK SMILES IDX 18 26
REMARK H PARENT 1 13 1 14 19 27
ROOT
ATOM      1  N   UNL     1       3.279  -1.330  38.945  1.00  0.00    -0.240 N 
ATOM      2  N   UNL     1       1.979  -1.651  39.083  1.00  0.00    -0.167 NA
ATOM      3  C   UNL     1       3.293  -3.484  38.811  1.00  0.00     0.021 A 
ATOM      4  C   UNL     1       4.117  -2.394  38.778  1.00  0.00     0.123 A 
ATOM      5  C   UNL     1       1.950  -2.994  39.004  1.00  0.00     0.105 A 
ATOM      6  C   UNL     1       0.866  -3.888  39.081  1.00  0.00     0.067 A 
ATOM      7  C   UNL     1       3.695  -4.807  38.681  1.00  0.00     0.012 A 
ATOM      8  C   UNL     1       1.242  -5.243  38.951  1.00  0.00     0.016 A 
ATOM      9  C   UNL     1       2.592  -5.679  38.761  1.00  0.00     0.002 A 
ENDROOT
BRANCH   6  10
ATOM     10  C   UNL     1      -0.505  -3.467  39.274  1.00  0.00     0.250 C 
ATOM     11  O   UNL     1      -1.463  -4.129  38.828  1.00  0.00    -0.269 OA
ATOM     12  N   UNL     1      -0.735  -2.296  39.996  1.00  0.00    -0.366 N 
ATOM     13  H   UNL     1       0.007  -1.724  40.385  1.00  0.00     0.159 HD
ATOM     14  H   UNL     1      -1.683  -1.971  40.157  1.00  0.00     0.159 HD
ENDBRANCH   6  10
BRANCH   1  15
ATOM     15  C   UNL     1       3.672  -0.004  38.978  1.00  0.00     0.065 A 
ATOM     16  C   UNL     1       3.833   0.705  37.788  1.00  0.00     0.028 A 
ATOM     17  C   UNL     1       3.906   0.624  40.202  1.00  0.00     0.028 A 
ATOM     18  C   UNL     1       4.228   2.042  37.821  1.00  0.00     0.006 A 
ATOM     19  C   UNL     1       4.301   1.961  40.235  1.00  0.00     0.006 A 
ATOM     20  C   UNL     1       4.462   2.671  39.044  1.00  0.00    -0.043 A 
BRANCH  20  21
ATOM     21  C   UNL     1       4.894   4.126  39.080  1.00  0.00     0.033 C 
ATOM     22  C   UNL     1       5.396   4.537  40.474  1.00  0.00     0.011 C 
ATOM     23  C   UNL     1       3.776   5.073  38.604  1.00  0.00     0.089 C 
ATOM     24  C   UNL     1       5.773   6.016  40.487  1.00  0.00     0.016 C 
ATOM     25  N   UNL     1       4.220   6.469  38.619  1.00  0.00    -0.316 NA
ATOM     26  C   UNL     1       4.635   6.885  39.958  1.00  0.00     0.081 C 
ATOM     27  H   UNL     1       3.457   7.066  38.301  1.00  0.00     0.122 HD
ENDBRANCH  20  21
ENDBRANCH   1  15
TORSDOF 3
ENDMDL
MODEL 12
REMARK VINA RESULT:    -9.247      5.137      5.873
REMARK INTER + INTRA:         -11.695
REMARK INTER:                 -10.888
REMARK INTRA:                  -0.807
REMARK UNBOUND:                -0.827
REMARK SMILES NC(=O)c1cccc2cn(-c3ccc([C@@H]4CCCNC4)cc3)nc12
REMARK SMILES IDX 10 1 23 2 8 3 9 4 24 5 4 6 7 7 5 8 6 9 2 10 3 11 1 12 11 15
REMARK SMILES IDX 12 16 22 17 13 18 21 19 14 20 15 21 16 22 20 23 17 24 19 25
REMARK SMILES IDX 18 26
REMARK H PARENT 1 13 1 14 19 27
ROOT
ATOM      1  N   UNL     1       3.907  -0.315  40.932  1.00  0.00    -0.240 N 
ATOM      2  N   UNL     1       3.820   0.540  39.895  1.00  0.00    -0.167 NA
ATOM      3  C   UNL     1       5.078   1.374  41.593  1.00  0.00     0.021 A 
ATOM      4  C   UNL     1       4.652   0.135  41.983  1.00  0.00     0.123 A 
ATOM      5  C   UNL     1       4.542   1.609  40.274  1.00  0.00     0.105 A 
ATOM      6  C   UNL     1       4.809   2.815  39.598  1.00  0.00     0.067 A 
ATOM      7  C   UNL     1       5.877   2.228  42.341  1.00  0.00     0.012 A 
ATOM      8  C   UNL     1       5.620   3.706  40.334  1.00  0.00     0.016 A 
ATOM      9  C   UNL     1       6.128   3.425  41.642  1.00  0.00     0.002 A 
ENDROOT
BRANCH   6  10
ATOM     10  C   UNL     1       4.306   3.117  38.276  1.00  0.00     0.250 C 
ATOM     11  O   UNL     1       4.006   4.280  37.939  1.00  0.00    -0.269 OA
ATOM     12  N   UNL     1       4.179   2.066  37.367  1.00  0.00    -0.366 N 
ATOM     13  H   UNL     1       4.414   1.105  37.587  1.00  0.00     0.159 HD
ATOM     14  H   UNL     1       3.835   2.240  36.428  1.00  0.00     0.159 HD
ENDBRANCH   6  10
BRANCH   1  15
ATOM     15  C   UNL     1       3.266  -1.539  40.877  1.00  0.00     0.065 A 
ATOM     16  C   UNL     1       2.231  -1.826  41.767  1.00  0.00     0.028 A 
ATOM     17  C   UNL     1       3.652  -2.486  39.928  1.00  0.00     0.028 A 
ATOM     18  C   UNL     1       1.584  -3.060  41.710  1.00  0.00     0.006 A 
ATOM     19  C   UNL     1       3.005  -3.720  39.871  1.00  0.00     0.006 A 
ATOM     20  C   UNL     1       1.971  -4.007  40.762  1.00  0.00    -0.043 A 
BRANCH  20  21
ATOM     21  C   UNL     1       1.268  -5.351  40.701  1.00  0.00     0.033 C 
ATOM     22  C   UNL     1       2.007  -6.420  41.522  1.00  0.00     0.011 C 
ATOM     23  C   UNL     1       1.058  -5.829  39.252  1.00  0.00     0.089 C 
ATOM     24  C   UNL     1       1.302  -7.768  41.397  1.00  0.00     0.016 C 
ATOM     25  N   UNL     1       0.353  -7.112  39.212  1.00  0.00    -0.316 NA
ATOM     26  C   UNL     1       1.088  -8.150  39.934  1.00  0.00     0.081 C 
ATOM     27  H   UNL     1       0.234  -7.399  38.240  1.00  0.00     0.122 HD
ENDBRANCH  20  21
ENDBRANCH   1  15
TORSDOF 3
ENDMDL
MODEL 13
REMARK VINA RESULT:    -9.059      5.346      8.332
REMARK INTER + INTRA:         -11.475
REMARK INTER:                 -10.824
REMARK INTRA:                  -0.651
REMARK UNBOUND:                -0.827
REMARK SMILES NC(=O)c1cccc2cn(-c3ccc([C@@H]4CCCNC4)cc3)nc12
REMARK SMILES IDX 10 1 23 2 8 3 9 4 24 5 4 6 7 7 5 8 6 9 2 10 3 11 1 12 11 15
REMARK SMILES IDX 12 16 22 17 13 18 21 19 14 20 15 21 16 22 20 23 17 24 19 25
REMARK SMILES IDX 18 26
REMARK H PARENT 1 13 1 14 19 27
ROOT
ATOM      1  N   UNL     1       3.244  -2.832  41.394  1.00  0.00    -0.240 N 
ATOM      2  N   UNL     1       3.323  -3.305  40.135  1.00  0.00    -0.167 NA
ATOM      3  C   UNL     1       2.232  -4.734  41.522  1.00  0.00     0.021 A 
ATOM      4  C   UNL     1       2.598  -3.652  42.273  1.00  0.00     0.123 A 
ATOM      5  C   UNL     1       2.698  -4.495  40.178  1.00  0.00     0.105 A 
ATOM      6  C   UNL     1       2.471  -5.442  39.162  1.00  0.00     0.067 A 
ATOM      7  C   UNL     1       1.540  -5.845  41.987  1.00  0.00     0.012 A 
ATOM      8  C   UNL     1       1.768  -6.585  39.604  1.00  0.00     0.016 A 
ATOM      9  C   UNL     1       1.326  -6.775  40.951  1.00  0.00     0.002 A 
ENDROOT
BRANCH   6  10
ATOM     10  C   UNL     1       2.909  -5.268  37.795  1.00  0.00     0.250 C 
ATOM     11  O   UNL     1       4.076  -5.531  37.442  1.00  0.00    -0.269 OA
ATOM     12  N   UNL     1       1.979  -4.808  36.862  1.00  0.00    -0.366 N 
ATOM     13  H   UNL     1       1.018  -4.585  37.094  1.00  0.00     0.159 HD
ATOM     14  H   UNL     1       2.247  -4.679  35.892  1.00  0.00     0.159 HD
ENDBRANCH   6  10
BRANCH   1  15
ATOM     15  C   UNL     1       3.798  -1.605  41.709  1.00  0.00     0.065 A 
ATOM     16  C   UNL     1       3.036  -0.444  41.586  1.00  0.00     0.028 A 
ATOM     17  C   UNL     1       5.119  -1.529  42.152  1.00  0.00     0.028 A 
ATOM     18  C   UNL     1       3.594   0.794  41.905  1.00  0.00     0.006 A 
ATOM     19  C   UNL     1       5.678  -0.291  42.471  1.00  0.00     0.006 A 
ATOM     20  C   UNL     1       4.915   0.871  42.347  1.00  0.00    -0.043 A 
BRANCH  20  21
ATOM     21  C   UNL     1       5.523   2.218  42.692  1.00  0.00     0.033 C 
ATOM     22  C   UNL     1       6.071   2.933  41.446  1.00  0.00     0.011 C 
ATOM     23  C   UNL     1       6.614   2.100  43.774  1.00  0.00     0.089 C 
ATOM     24  C   UNL     1       6.719   4.259  41.837  1.00  0.00     0.016 C 
ATOM     25  N   UNL     1       7.169   3.412  44.114  1.00  0.00    -0.316 NA
ATOM     26  C   UNL     1       7.753   4.067  42.944  1.00  0.00     0.081 C 
ATOM     27  H   UNL     1       7.887   3.296  44.829  1.00  0.00     0.122 HD
ENDBRANCH  20  21
ENDBRANCH   1  15
TORSDOF 3
ENDMDL
MODEL 14
REMARK VINA RESULT:    -9.026      5.922      8.625
REMARK INTER + INTRA:         -11.435
REMARK INTER:                 -10.649
REMARK INTRA:                  -0.786
REMARK UNBOUND:                -0.827
REMARK SMILES NC(=O)c1cccc2cn(-c3ccc([C@@H]4CCCNC4)cc3)nc12
REMARK SMILES IDX 10 1 23 2 8 3 9 4 24 5 4 6 7 7 5 8 6 9 2 10 3 11 1 12 11 15
REMARK SMILES IDX 12 16 22 17 13 18 21 19 14 20 15 21 16 22 20 23 17 24 19 25
REMARK SMILES IDX 18 26
REMARK H PARENT 1 13 1 14 19 27
ROOT
ATOM      1  N   UNL     1       2.331  -3.051  42.067  1.00  0.00    -0.240 N 
ATOM      2  N   UNL     1       1.575  -3.257  40.971  1.00  0.00    -0.167 NA
ATOM      3  C   UNL     1       1.470  -4.997  42.428  1.00  0.00     0.021 A 
ATOM      4  C   UNL     1       2.306  -4.066  42.978  1.00  0.00     0.123 A 
ATOM      5  C   UNL     1       1.020  -4.467  41.163  1.00  0.00     0.105 A 
ATOM      6  C   UNL     1       0.139  -5.205  40.351  1.00  0.00     0.067 A 
ATOM      7  C   UNL     1       1.131  -6.217  42.997  1.00  0.00     0.012 A 
ATOM      8  C   UNL     1      -0.226  -6.453  40.903  1.00  0.00     0.016 A 
ATOM      9  C   UNL     1       0.248  -6.933  42.165  1.00  0.00     0.002 A 
ENDROOT
BRANCH   6  10
ATOM     10  C   UNL     1      -0.353  -4.735  39.074  1.00  0.00     0.250 C 
ATOM     11  O   UNL     1      -1.558  -4.471  38.892  1.00  0.00    -0.269 OA
ATOM     12  N   UNL     1       0.569  -4.565  38.040  1.00  0.00    -0.366 N 
ATOM     13  H   UNL     1       1.559  -4.759  38.137  1.00  0.00     0.159 HD
ATOM     14  H   UNL     1       0.264  -4.232  37.131  1.00  0.00     0.159 HD
ENDBRANCH   6  10
BRANCH   1  15
ATOM     15  C   UNL     1       3.055  -1.880  42.198  1.00  0.00     0.065 A 
ATOM     16  C   UNL     1       4.449  -1.918  42.194  1.00  0.00     0.028 A 
ATOM     17  C   UNL     1       2.390  -0.660  42.333  1.00  0.00     0.028 A 
ATOM     18  C   UNL     1       5.179  -0.737  42.325  1.00  0.00     0.006 A 
ATOM     19  C   UNL     1       3.120   0.521  42.465  1.00  0.00     0.006 A 
ATOM     20  C   UNL     1       4.516   0.483  42.461  1.00  0.00    -0.043 A 
BRANCH  20  21
ATOM     21  C   UNL     1       5.310   1.768  42.606  1.00  0.00     0.033 C 
ATOM     22  C   UNL     1       5.890   2.235  41.261  1.00  0.00     0.011 C 
ATOM     23  C   UNL     1       6.422   1.644  43.664  1.00  0.00     0.089 C 
ATOM     24  C   UNL     1       6.722   3.500  41.452  1.00  0.00     0.016 C 
ATOM     25  N   UNL     1       7.159   2.902  43.810  1.00  0.00    -0.316 NA
ATOM     26  C   UNL     1       7.770   3.315  42.547  1.00  0.00     0.081 C 
ATOM     27  H   UNL     1       7.887   2.784  44.514  1.00  0.00     0.122 HD
ENDBRANCH  20  21
ENDBRANCH   1  15
TORSDOF 3
ENDMDL
MODEL 15
REMARK VINA RESULT:    -8.966      3.937      4.483
REMARK INTER + INTRA:         -11.365
REMARK INTER:                 -10.716
REMARK INTRA:                  -0.649
REMARK UNBOUND:                -0.827
REMARK SMILES NC(=O)c1cccc2cn(-c3ccc([C@@H]4CCCNC4)cc3)nc12
REMARK SMILES IDX 10 1 23 2 8 3 9 4 24 5 4 6 7 7 5 8 6 9 2 10 3 11 1 12 11 15
REMARK SMILES IDX 12 16 22 17 13 18 21 19 14 20 15 21 16 22 20 23 17 24 19 25
REMARK SMILES IDX 18 26
REMARK H PARENT 1 13 1 14 19 27
ROOT
ATOM      1  N   UNL     1       4.201   1.645  39.848  1.00  0.00    -0.240 N 
ATOM      2  N   UNL     1       3.673   2.327  38.813  1.00  0.00    -0.167 NA
ATOM      3  C   UNL     1       4.984   3.636  40.129  1.00  0.00     0.021 A 
ATOM      4  C   UNL     1       4.999   2.383  40.673  1.00  0.00     0.123 A 
ATOM      5  C   UNL     1       4.143   3.580  38.957  1.00  0.00     0.105 A 
ATOM      6  C   UNL     1       3.928   4.729  38.174  1.00  0.00     0.067 A 
ATOM      7  C   UNL     1       5.660   4.743  40.626  1.00  0.00     0.012 A 
ATOM      8  C   UNL     1       4.603   5.873  38.655  1.00  0.00     0.016 A 
ATOM      9  C   UNL     1       5.428   5.877  39.824  1.00  0.00     0.002 A 
ENDROOT
BRANCH   6  10
ATOM     10  C   UNL     1       3.099   4.745  36.989  1.00  0.00     0.250 C 
ATOM     11  O   UNL     1       3.495   4.269  35.906  1.00  0.00    -0.269 OA
ATOM     12  N   UNL     1       1.821   5.295  37.091  1.00  0.00    -0.366 N 
ATOM     13  H   UNL     1       1.449   5.689  37.947  1.00  0.00     0.159 HD
ATOM     14  H   UNL     1       1.207   5.318  36.283  1.00  0.00     0.159 HD
ENDBRANCH   6  10
BRANCH   1  15
ATOM     15  C   UNL     1       3.917   0.301  40.007  1.00  0.00     0.065 A 
ATOM     16  C   UNL     1       4.902  -0.571  40.470  1.00  0.00     0.028 A 
ATOM     17  C   UNL     1       2.643  -0.183  39.706  1.00  0.00     0.028 A 
ATOM     18  C   UNL     1       4.615  -1.926  40.632  1.00  0.00     0.006 A 
ATOM     19  C   UNL     1       2.356  -1.538  39.867  1.00  0.00     0.006 A 
ATOM     20  C   UNL     1       3.342  -2.410  40.330  1.00  0.00    -0.043 A 
BRANCH  20  21
ATOM     21  C   UNL     1       3.030  -3.885  40.504  1.00  0.00     0.033 C 
ATOM     22  C   UNL     1       2.682  -4.557  39.166  1.00  0.00     0.011 C 
ATOM     23  C   UNL     1       1.911  -4.122  41.537  1.00  0.00     0.089 C 
ATOM     24  C   UNL     1       2.325  -6.025  39.385  1.00  0.00     0.016 C 
ATOM     25  N   UNL     1       1.643  -5.551  41.712  1.00  0.00    -0.316 NA
ATOM     26  C   UNL     1       1.246  -6.181  40.453  1.00  0.00     0.081 C 
ATOM     27  H   UNL     1       0.898  -5.671  42.398  1.00  0.00     0.122 HD
ENDBRANCH  20  21
ENDBRANCH   1  15
TORSDOF 3
ENDMDL
MODEL 16
REMARK VINA RESULT:    -8.937      5.615      6.664
REMARK INTER + INTRA:         -11.331
REMARK INTER:                 -10.503
REMARK INTRA:                  -0.828
REMARK UNBOUND:                -0.827
REMARK SMILES NC(=O)c1cccc2cn(-c3ccc([C@@H]4CCCNC4)cc3)nc12
REMARK SMILES IDX 10 1 23 2 8 3 9 4 24 5 4 6 7 7 5 8 6 9 2 10 3 11 1 12 11 15
REMARK SMILES IDX 12 16 22 17 13 18 21 19 14 20 15 21 16 22 20 23 17 24 19 25
REMARK SMILES IDX 18 26
REMARK H PARENT 1 13 1 14 19 27
ROOT
ATOM      1  N   UNL     1       3.747  -0.317  40.642  1.00  0.00    -0.240 N 
ATOM      2  N   UNL     1       4.544   0.023  41.674  1.00  0.00    -0.167 NA
ATOM      3  C   UNL     1       4.425   1.661  40.104  1.00  0.00     0.021 A 
ATOM      4  C   UNL     1       3.639   0.632  39.666  1.00  0.00     0.123 A 
ATOM      5  C   UNL     1       4.985   1.257  41.371  1.00  0.00     0.105 A 
ATOM      6  C   UNL     1       5.848   2.115  42.077  1.00  0.00     0.067 A 
ATOM      7  C   UNL     1       4.630   2.862  39.438  1.00  0.00     0.012 A 
ATOM      8  C   UNL     1       6.078   3.347  41.425  1.00  0.00     0.016 A 
ATOM      9  C   UNL     1       5.496   3.701  40.167  1.00  0.00     0.002 A 
ENDROOT
BRANCH   6  10
ATOM     10  C   UNL     1       6.445   1.776  43.351  1.00  0.00     0.250 C 
ATOM     11  O   UNL     1       6.372   2.540  44.333  1.00  0.00    -0.269 OA
ATOM     12  N   UNL     1       7.099   0.549  43.461  1.00  0.00    -0.366 N 
ATOM     13  H   UNL     1       7.183  -0.112  42.696  1.00  0.00     0.159 HD
ATOM     14  H   UNL     1       7.525   0.272  44.340  1.00  0.00     0.159 HD
ENDBRANCH   6  10
BRANCH   1  15
ATOM     15  C   UNL     1       3.118  -1.548  40.629  1.00  0.00     0.065 A 
ATOM     16  C   UNL     1       2.184  -1.864  41.616  1.00  0.00     0.028 A 
ATOM     17  C   UNL     1       3.415  -2.473  39.628  1.00  0.00     0.028 A 
ATOM     18  C   UNL     1       1.548  -3.105  41.602  1.00  0.00     0.006 A 
ATOM     19  C   UNL     1       2.780  -3.715  39.615  1.00  0.00     0.006 A 
ATOM     20  C   UNL     1       1.846  -4.031  40.603  1.00  0.00    -0.043 A 
BRANCH  20  21
ATOM     21  C   UNL     1       1.156  -5.383  40.589  1.00  0.00     0.033 C 
ATOM     22  C   UNL     1       1.878  -6.402  41.485  1.00  0.00     0.011 C 
ATOM     23  C   UNL     1       0.994  -5.935  39.160  1.00  0.00     0.089 C 
ATOM     24  C   UNL     1       1.187  -7.761  41.408  1.00  0.00     0.016 C 
ATOM     25  N   UNL     1       0.301  -7.226  39.164  1.00  0.00    -0.316 NA
ATOM     26  C   UNL     1       1.022  -8.218  39.961  1.00  0.00     0.081 C 
ATOM     27  H   UNL     1       0.214  -7.562  38.205  1.00  0.00     0.122 HD
ENDBRANCH  20  21
ENDBRANCH   1  15
TORSDOF 3
ENDMDL
MODEL 17
REMARK VINA RESULT:    -8.730      4.346      5.502
REMARK INTER + INTRA:         -11.087
REMARK INTER:                 -10.310
REMARK INTRA:                  -0.777
REMARK UNBOUND:                -0.827
REMARK SMILES NC(=O)c1cccc2cn(-c3ccc([C@@H]4CCCNC4)cc3)nc12
REMARK SMILES IDX 10 1 23 2 8 3 9 4 24 5 4 6 7 7 5 8 6 9 2 10 3 11 1 12 11 15
REMARK SMILES IDX 12 16 22 17 13 18 21 19 14 20 15 21 16 22 20 23 17 24 19 25
REMARK SMILES IDX 18 26
REMARK H PARENT 1 13 1 14 19 27
ROOT
ATOM      1  N   UNL     1       4.048   2.514  38.900  1.00  0.00    -0.240 N 
ATOM      2  N   UNL     1       4.945   2.868  39.841  1.00  0.00    -0.167 NA
ATOM      3  C   UNL     1       4.101   4.666  38.738  1.00  0.00     0.021 A 
ATOM      4  C   UNL     1       3.508   3.556  38.205  1.00  0.00     0.123 A 
ATOM      5  C   UNL     1       5.003   4.210  39.769  1.00  0.00     0.105 A 
ATOM      6  C   UNL     1       5.768   5.131  40.508  1.00  0.00     0.067 A 
ATOM      7  C   UNL     1       3.864   5.977  38.348  1.00  0.00     0.012 A 
ATOM      8  C   UNL     1       5.551   6.475  40.134  1.00  0.00     0.016 A 
ATOM      9  C   UNL     1       4.642   6.876  39.104  1.00  0.00     0.002 A 
ENDROOT
BRANCH   6  10
ATOM     10  C   UNL     1       6.691   4.744  41.554  1.00  0.00     0.250 C 
ATOM     11  O   UNL     1       6.975   5.513  42.494  1.00  0.00    -0.269 OA
ATOM     12  N   UNL     1       7.249   3.467  41.496  1.00  0.00    -0.366 N 
ATOM     13  H   UNL     1       7.047   2.801  40.759  1.00  0.00     0.159 HD
ATOM     14  H   UNL     1       7.895   3.157  42.215  1.00  0.00     0.159 HD
ENDBRANCH   6  10
BRANCH   1  15
ATOM     15  C   UNL     1       3.743   1.180  38.702  1.00  0.00     0.065 A 
ATOM     16  C   UNL     1       4.174   0.531  37.545  1.00  0.00     0.028 A 
ATOM     17  C   UNL     1       3.006   0.483  39.660  1.00  0.00     0.028 A 
ATOM     18  C   UNL     1       3.867  -0.815  37.345  1.00  0.00     0.006 A 
ATOM     19  C   UNL     1       2.699  -0.863  39.460  1.00  0.00     0.006 A 
ATOM     20  C   UNL     1       3.130  -1.512  38.302  1.00  0.00    -0.043 A 
BRANCH  20  21
ATOM     21  C   UNL     1       2.794  -2.976  38.084  1.00  0.00     0.033 C 
ATOM     22  C   UNL     1       1.279  -3.200  37.947  1.00  0.00     0.011 C 
ATOM     23  C   UNL     1       3.378  -3.874  39.191  1.00  0.00     0.089 C 
ATOM     24  C   UNL     1       0.975  -4.687  37.780  1.00  0.00     0.016 C 
ATOM     25  N   UNL     1       3.068  -5.286  38.949  1.00  0.00    -0.316 NA
ATOM     26  C   UNL     1       1.625  -5.514  38.886  1.00  0.00     0.081 C 
ATOM     27  H   UNL     1       3.466  -5.849  39.700  1.00  0.00     0.122 HD
ENDBRANCH  20  21
ENDBRANCH   1  15
TORSDOF 3
ENDMDL
MODEL 18
REMARK VINA RESULT:    -8.640      5.301      7.532
REMARK INTER + INTRA:         -10.981
REMARK INTER:                 -10.206
REMARK INTRA:                  -0.775
REMARK UNBOUND:                -0.827
REMARK SMILES NC(=O)c1cccc2cn(-c3ccc([C@@H]4CCCNC4)cc3)nc12
REMARK SMILES IDX 10 1 23 2 8 3 9 4 24 5 4 6 7 7 5 8 6 9 2 10 3 11 1 12 11 15
REMARK SMILES IDX 12 16 22 17 13 18 21 19 14 20 15 21 16 22 20 23 17 24 19 25
REMARK SMILES IDX 18 26
REMARK H PARENT 1 13 1 14 19 27
ROOT
ATOM      1  N   UNL     1       3.456  -1.627  39.742  1.00  0.00    -0.240 N 
ATOM      2  N   UNL     1       2.158  -1.940  39.917  1.00  0.00    -0.167 NA
ATOM      3  C   UNL     1       3.184  -3.326  38.439  1.00  0.00     0.021 A 
ATOM      4  C   UNL     1       4.124  -2.429  38.862  1.00  0.00     0.123 A 
ATOM      5  C   UNL     1       1.952  -3.001  39.116  1.00  0.00     0.105 A 
ATOM      6  C   UNL     1       0.787  -3.755  38.884  1.00  0.00     0.067 A 
ATOM      7  C   UNL     1       3.397  -4.352  37.527  1.00  0.00     0.012 A 
ATOM      8  C   UNL     1       0.971  -4.807  37.960  1.00  0.00     0.016 A 
ATOM      9  C   UNL     1       2.216  -5.089  37.314  1.00  0.00     0.002 A 
ENDROOT
BRANCH   6  10
ATOM     10  C   UNL     1      -0.481  -3.485  39.527  1.00  0.00     0.250 C 
ATOM     11  O   UNL     1      -1.353  -4.368  39.653  1.00  0.00    -0.269 OA
ATOM     12  N   UNL     1      -0.701  -2.202  40.027  1.00  0.00    -0.366 N 
ATOM     13  H   UNL     1      -0.024  -1.450  39.957  1.00  0.00     0.159 HD
ATOM     14  H   UNL     1      -1.576  -1.975  40.491  1.00  0.00     0.159 HD
ENDBRANCH   6  10
BRANCH   1  15
ATOM     15  C   UNL     1       4.011  -0.563  40.429  1.00  0.00     0.065 A 
ATOM     16  C   UNL     1       4.136  -0.618  41.817  1.00  0.00     0.028 A 
ATOM     17  C   UNL     1       4.448   0.565  39.733  1.00  0.00     0.028 A 
ATOM     18  C   UNL     1       4.696   0.456  42.510  1.00  0.00     0.006 A 
ATOM     19  C   UNL     1       5.008   1.638  40.426  1.00  0.00     0.006 A 
ATOM     20  C   UNL     1       5.132   1.584  41.815  1.00  0.00    -0.043 A 
BRANCH  20  21
ATOM     21  C   UNL     1       5.740   2.753  42.568  1.00  0.00     0.033 C 
ATOM     22  C   UNL     1       6.529   3.685  41.634  1.00  0.00     0.011 C 
ATOM     23  C   UNL     1       6.621   2.288  43.743  1.00  0.00     0.089 C 
ATOM     24  C   UNL     1       7.168   4.819  42.432  1.00  0.00     0.016 C 
ATOM     25  N   UNL     1       7.176   3.429  44.475  1.00  0.00    -0.316 NA
ATOM     26  C   UNL     1       7.984   4.282  43.605  1.00  0.00     0.081 C 
ATOM     27  H   UNL     1       7.754   3.086  45.242  1.00  0.00     0.122 HD
ENDBRANCH  20  21
ENDBRANCH   1  15
TORSDOF 3
ENDMDL
MODEL 19
REMARK VINA RESULT:    -8.534      5.622      8.229
REMARK INTER + INTRA:         -10.857
REMARK INTER:                 -10.033
REMARK INTRA:                  -0.825
REMARK UNBOUND:                -0.827
REMARK SMILES NC(=O)c1cccc2cn(-c3ccc([C@@H]4CCCNC4)cc3)nc12
REMARK SMILES IDX 10 1 23 2 8 3 9 4 24 5 4 6 7 7 5 8 6 9 2 10 3 11 1 12 11 15
REMARK SMILES IDX 12 16 22 17 13 18 21 19 14 20 15 21 16 22 20 23 17 24 19 25
REMARK SMILES IDX 18 26
REMARK H PARENT 1 13 1 14 19 27
ROOT
ATOM      1  N   UNL     1       2.553  -1.630  40.659  1.00  0.00    -0.240 N 
ATOM      2  N   UNL     1       2.624  -2.845  41.236  1.00  0.00    -0.167 NA
ATOM      3  C   UNL     1       0.873  -2.678  39.799  1.00  0.00     0.021 A 
ATOM      4  C   UNL     1       1.517  -1.473  39.784  1.00  0.00     0.123 A 
ATOM      5  C   UNL     1       1.587  -3.529  40.720  1.00  0.00     0.105 A 
ATOM      6  C   UNL     1       1.159  -4.849  40.953  1.00  0.00     0.067 A 
ATOM      7  C   UNL     1      -0.255  -3.002  39.057  1.00  0.00     0.012 A 
ATOM      8  C   UNL     1       0.012  -5.209  40.213  1.00  0.00     0.016 A 
ATOM      9  C   UNL     1      -0.661  -4.327  39.309  1.00  0.00     0.002 A 
ENDROOT
BRANCH   6  10
ATOM     10  C   UNL     1       1.826  -5.756  41.862  1.00  0.00     0.250 C 
ATOM     11  O   UNL     1       1.966  -6.966  41.594  1.00  0.00    -0.269 OA
ATOM     12  N   UNL     1       2.332  -5.236  43.053  1.00  0.00    -0.366 N 
ATOM     13  H   UNL     1       2.251  -4.260  43.316  1.00  0.00     0.159 HD
ATOM     14  H   UNL     1       2.812  -5.839  43.713  1.00  0.00     0.159 HD
ENDBRANCH   6  10
BRANCH   1  15
ATOM     15  C   UNL     1       3.486  -0.659  40.972  1.00  0.00     0.065 A 
ATOM     16  C   UNL     1       4.398  -0.231  40.008  1.00  0.00     0.028 A 
ATOM     17  C   UNL     1       3.514  -0.106  42.253  1.00  0.00     0.028 A 
ATOM     18  C   UNL     1       5.338   0.749  40.324  1.00  0.00     0.006 A 
ATOM     19  C   UNL     1       4.454   0.874  42.569  1.00  0.00     0.006 A 
ATOM     20  C   UNL     1       5.367   1.302  41.604  1.00  0.00    -0.043 A 
BRANCH  20  21
ATOM     21  C   UNL     1       6.392   2.367  41.949  1.00  0.00     0.033 C 
ATOM     22  C   UNL     1       6.485   2.599  43.466  1.00  0.00     0.011 C 
ATOM     23  C   UNL     1       6.119   3.692  41.213  1.00  0.00     0.089 C 
ATOM     24  C   UNL     1       7.487   3.710  43.772  1.00  0.00     0.016 C 
ATOM     25  N   UNL     1       7.133   4.699  41.536  1.00  0.00    -0.316 NA
ATOM     26  C   UNL     1       7.178   4.973  42.972  1.00  0.00     0.081 C 
ATOM     27  H   UNL     1       6.920   5.561  41.034  1.00  0.00     0.122 HD
ENDBRANCH  20  21
ENDBRANCH   1  15
TORSDOF 3
ENDMDL
MODEL 20
REMARK VINA RESULT:    -8.414      4.904      7.972
REMARK INTER + INTRA:         -10.716
REMARK INTER:                  -9.957
REMARK INTRA:                  -0.759
REMARK UNBOUND:                -0.827
REMARK SMILES NC(=O)c1cccc2cn(-c3ccc([C@@H]4CCCNC4)cc3)nc12
REMARK SMILES IDX 10 1 23 2 8 3 9 4 24 5 4 6 7 7 5 8 6 9 2 10 3 11 1 12 11 15
REMARK SMILES IDX 12 16 22 17 13 18 21 19 14 20 15 21 16 22 20 23 17 24 19 25
REMARK SMILES IDX 18 26
REMARK H PARENT 1 13 1 14 19 27
ROOT
ATOM      1  N   UNL     1       3.846  -2.028  41.131  1.00  0.00    -0.240 N 
ATOM      2  N   UNL     1       3.798  -2.665  39.945  1.00  0.00    -0.167 NA
ATOM      3  C   UNL     1       2.607  -3.744  41.551  1.00  0.00     0.021 A 
ATOM      4  C   UNL     1       3.147  -2.633  42.135  1.00  0.00     0.123 A 
ATOM      5  C   UNL     1       3.029  -3.746  40.171  1.00  0.00     0.105 A 
ATOM      6  C   UNL     1       2.629  -4.777  39.302  1.00  0.00     0.067 A 
ATOM      7  C   UNL     1       1.803  -4.682  42.186  1.00  0.00     0.012 A 
ATOM      8  C   UNL     1       1.810  -5.749  39.919  1.00  0.00     0.016 A 
ATOM      9  C   UNL     1       1.418  -5.702  41.294  1.00  0.00     0.002 A 
ENDROOT
BRANCH   6  10
ATOM     10  C   UNL     1       3.014  -4.842  37.909  1.00  0.00     0.250 C 
ATOM     11  O   UNL     1       3.814  -5.701  37.489  1.00  0.00    -0.269 OA
ATOM     12  N   UNL     1       2.447  -3.919  37.029  1.00  0.00    -0.366 N 
ATOM     13  H   UNL     1       1.788  -3.205  37.316  1.00  0.00     0.159 HD
ATOM     14  H   UNL     1       2.688  -3.936  36.043  1.00  0.00     0.159 HD
ENDBRANCH   6  10
BRANCH   1  15
ATOM     15  C   UNL     1       4.568  -0.855  41.257  1.00  0.00     0.065 A 
ATOM     16  C   UNL     1       5.609  -0.578  40.371  1.00  0.00     0.028 A 
ATOM     17  C   UNL     1       4.254   0.051  42.271  1.00  0.00     0.028 A 
ATOM     18  C   UNL     1       6.336   0.605  40.498  1.00  0.00     0.006 A 
ATOM     19  C   UNL     1       4.982   1.235  42.398  1.00  0.00     0.006 A 
ATOM     20  C   UNL     1       6.024   1.512  41.512  1.00  0.00    -0.043 A 
BRANCH  20  21
ATOM     21  C   UNL     1       6.816   2.799  41.651  1.00  0.00     0.033 C 
ATOM     22  C   UNL     1       7.276   3.031  43.100  1.00  0.00     0.011 C 
ATOM     23  C   UNL     1       6.035   4.019  41.127  1.00  0.00     0.089 C 
ATOM     24  C   UNL     1       8.025   4.356  43.212  1.00  0.00     0.016 C 
ATOM     25  N   UNL     1       6.826   5.246  41.244  1.00  0.00    -0.316 NA
ATOM     26  C   UNL     1       7.209   5.508  42.631  1.00  0.00     0.081 C 
ATOM     27  H   UNL     1       6.280   6.032  40.891  1.00  0.00     0.122 HD
ENDBRANCH  20  21
ENDBRANCH   1  15
TORSDOF 3
ENDMDL
