MODEL 1
REMARK VINA RESULT:    -9.542      0.000      0.000
REMARK INTER + INTRA:         -10.840
REMARK INTER:                 -11.215
REMARK INTRA:                   0.375
REMARK UNBOUND:                 0.375
REMARK SMILES CN1C(N)=N[C@](C)(c2cc(NC(=O)c3ccc(F)cn3)ccc2F)CS1(=O)=O
REMARK SMILES IDX 8 1 9 2 10 3 21 4 22 5 23 6 24 7 6 8 25 9 5 10 26 11 3 12
REMARK SMILES IDX 27 13 2 14 28 15 4 16 7 17 1 18 11 21 12 22 13 23 14 25
REMARK SMILES IDX 20 26 15 27 19 28 16 29 17 30 18 31
REMARK H PARENT 4 19 4 20 11 24
ROOT
ATOM      1  C   UNL     1      15.289   4.677  20.521  1.00  0.00     0.018 A 
ATOM      2  C   UNL     1      16.177   4.452  21.572  1.00  0.00     0.035 A 
ATOM      3  C   UNL     1      16.637   5.470  22.377  1.00  0.00     0.042 A 
ATOM      4  C   UNL     1      16.241   6.781  22.148  1.00  0.00     0.029 A 
ATOM      5  C   UNL     1      15.357   7.022  21.111  1.00  0.00     0.042 A 
ATOM      6  C   UNL     1      14.879   5.987  20.332  1.00  0.00     0.129 A 
ATOM      7  F   UNL     1      13.990   6.247  19.338  1.00  0.00    -0.207 F 
ENDROOT
BRANCH   1   8
ATOM      8  C   UNL     1      14.797   3.531  19.651  1.00  0.00     0.105 C 
ATOM      9  C   UNL     1      15.847   2.504  19.288  1.00  0.00     0.195 C 
ATOM     10  N   UNL     1      14.124   4.008  18.443  1.00  0.00    -0.240 NA
ATOM     11  S   UNL     1      17.125   3.236  18.298  1.00  0.00     0.239 S 
ATOM     12  C   UNL     1      14.790   4.378  17.393  1.00  0.00     0.205 C 
ATOM     13  O   UNL     1      17.673   2.172  17.476  1.00  0.00    -0.206 OA
ATOM     14  N   UNL     1      16.191   4.248  17.265  1.00  0.00    -0.243 N 
ATOM     15  O   UNL     1      17.916   4.156  19.054  1.00  0.00    -0.206 OA
ATOM     16  N   UNL     1      14.178   4.909  16.290  1.00  0.00    -0.369 N 
ATOM     17  C   UNL     1      13.682   2.790  20.394  1.00  0.00     0.044 C 
ATOM     18  C   UNL     1      16.947   4.786  16.117  1.00  0.00     0.167 C 
ATOM     19  H   UNL     1      13.202   5.039  16.283  1.00  0.00     0.159 HD
ATOM     20  H   UNL     1      14.714   5.162  15.503  1.00  0.00     0.159 HD
ENDBRANCH   1   8
BRANCH   3  21
ATOM     21  N   UNL     1      17.527   5.109  23.397  1.00  0.00    -0.321 N 
ATOM     22  C   UNL     1      18.907   5.205  23.404  1.00  0.00     0.274 C 
ATOM     23  O   UNL     1      19.596   5.512  22.440  1.00  0.00    -0.267 OA
ATOM     24  H   UNL     1      17.118   4.741  24.214  1.00  0.00     0.170 HD
BRANCH  22  25
ATOM     25  C   UNL     1      19.554   4.941  24.712  1.00  0.00     0.128 A 
ATOM     26  N   UNL     1      20.330   3.854  24.780  1.00  0.00    -0.248 NA
ATOM     27  C   UNL     1      19.345   5.804  25.773  1.00  0.00     0.037 A 
ATOM     28  C   UNL     1      20.924   3.592  25.956  1.00  0.00     0.151 A 
ATOM     29  C   UNL     1      19.975   5.510  26.970  1.00  0.00     0.043 A 
ATOM     30  C   UNL     1      20.773   4.387  27.070  1.00  0.00     0.141 A 
ATOM     31  F   UNL     1      21.411   4.066  28.208  1.00  0.00    -0.205 F 
ENDBRANCH  22  25
ENDBRANCH   3  21
TORSDOF 3
ENDMDL
MODEL 2
REMARK VINA RESULT:    -9.329      5.868      9.656
REMARK INTER + INTRA:         -10.590
REMARK INTER:                 -10.198
REMARK INTRA:                  -0.392
REMARK UNBOUND:                 0.375
REMARK SMILES CN1C(N)=N[C@](C)(c2cc(NC(=O)c3ccc(F)cn3)ccc2F)CS1(=O)=O
REMARK SMILES IDX 8 1 9 2 10 3 21 4 22 5 23 6 24 7 6 8 25 9 5 10 26 11 3 12
REMARK SMILES IDX 27 13 2 14 28 15 4 16 7 17 1 18 11 21 12 22 13 23 14 25
REMARK SMILES IDX 20 26 15 27 19 28 16 29 17 30 18 31
REMARK H PARENT 4 19 4 20 11 24
ROOT
ATOM      1  C   UNL     1      18.768  11.307  25.698  1.00  0.00     0.018 A 
ATOM      2  C   UNL     1      18.476  10.427  24.658  1.00  0.00     0.035 A 
ATOM      3  C   UNL     1      17.342  10.548  23.887  1.00  0.00     0.042 A 
ATOM      4  C   UNL     1      16.423  11.559  24.141  1.00  0.00     0.029 A 
ATOM      5  C   UNL     1      16.698  12.444  25.169  1.00  0.00     0.042 A 
ATOM      6  C   UNL     1      17.856  12.329  25.913  1.00  0.00     0.129 A 
ATOM      7  F   UNL     1      18.117  13.229  26.896  1.00  0.00    -0.207 F 
ENDROOT
BRANCH   1   8
ATOM      8  C   UNL     1      20.031  11.148  26.530  1.00  0.00     0.105 C 
ATOM      9  C   UNL     1      20.898  12.385  26.621  1.00  0.00     0.195 C 
ATOM     10  N   UNL     1      20.832  10.004  26.098  1.00  0.00    -0.240 NA
ATOM     11  S   UNL     1      21.526  12.829  25.022  1.00  0.00     0.239 S 
ATOM     12  C   UNL     1      21.638  10.080  25.084  1.00  0.00     0.205 C 
ATOM     13  O   UNL     1      22.781  13.523  25.248  1.00  0.00    -0.206 OA
ATOM     14  N   UNL     1      21.908  11.277  24.384  1.00  0.00    -0.243 N 
ATOM     15  O   UNL     1      20.488  13.306  24.162  1.00  0.00    -0.206 OA
ATOM     16  N   UNL     1      22.327   8.994  24.615  1.00  0.00    -0.369 N 
ATOM     17  C   UNL     1      19.637  10.770  27.961  1.00  0.00     0.044 C 
ATOM     18  C   UNL     1      22.729  11.323  23.157  1.00  0.00     0.167 C 
ATOM     19  H   UNL     1      22.205   8.114  25.039  1.00  0.00     0.159 HD
ATOM     20  H   UNL     1      22.944   9.093  23.854  1.00  0.00     0.159 HD
ENDBRANCH   1   8
BRANCH   3  21
ATOM     21  N   UNL     1      17.166   9.596  22.874  1.00  0.00    -0.321 N 
ATOM     22  C   UNL     1      16.453   8.411  22.926  1.00  0.00     0.274 C 
ATOM     23  O   UNL     1      15.953   7.934  23.936  1.00  0.00    -0.267 OA
ATOM     24  H   UNL     1      17.606   9.796  22.016  1.00  0.00     0.170 HD
BRANCH  22  25
ATOM     25  C   UNL     1      16.277   7.721  21.626  1.00  0.00     0.128 A 
ATOM     26  N   UNL     1      17.391   7.482  20.926  1.00  0.00    -0.248 NA
ATOM     27  C   UNL     1      15.011   7.352  21.204  1.00  0.00     0.037 A 
ATOM     28  C   UNL     1      17.257   6.861  19.742  1.00  0.00     0.151 A 
ATOM     29  C   UNL     1      14.906   6.708  19.984  1.00  0.00     0.043 A 
ATOM     30  C   UNL     1      16.041   6.461  19.236  1.00  0.00     0.141 A 
ATOM     31  F   UNL     1      15.989   5.832  18.050  1.00  0.00    -0.205 F 
ENDBRANCH  22  25
ENDBRANCH   3  21
TORSDOF 3
ENDMDL
MODEL 3
REMARK VINA RESULT:    -9.105      2.104      2.780
REMARK INTER + INTRA:         -10.327
REMARK INTER:                 -10.880
REMARK INTRA:                   0.554
REMARK UNBOUND:                 0.375
REMARK SMILES CN1C(N)=N[C@](C)(c2cc(NC(=O)c3ccc(F)cn3)ccc2F)CS1(=O)=O
REMARK SMILES IDX 8 1 9 2 10 3 21 4 22 5 23 6 24 7 6 8 25 9 5 10 26 11 3 12
REMARK SMILES IDX 27 13 2 14 28 15 4 16 7 17 1 18 11 21 12 22 13 23 14 25
REMARK SMILES IDX 20 26 15 27 19 28 16 29 17 30 18 31
REMARK H PARENT 4 19 4 20 11 24
ROOT
ATOM      1  C   UNL     1      16.571   5.852  21.119  1.00  0.00     0.018 A 
ATOM      2  C   UNL     1      17.406   5.482  22.173  1.00  0.00     0.035 A 
ATOM      3  C   UNL     1      18.778   5.499  22.067  1.00  0.00     0.042 A 
ATOM      4  C   UNL     1      19.386   5.873  20.875  1.00  0.00     0.029 A 
ATOM      5  C   UNL     1      18.574   6.247  19.819  1.00  0.00     0.042 A 
ATOM      6  C   UNL     1      17.199   6.255  19.951  1.00  0.00     0.129 A 
ATOM      7  F   UNL     1      16.425   6.655  18.909  1.00  0.00    -0.207 F 
ENDROOT
BRANCH   1   8
ATOM      8  C   UNL     1      15.058   5.826  21.269  1.00  0.00     0.105 C 
ATOM      9  C   UNL     1      14.518   4.690  22.109  1.00  0.00     0.195 C 
ATOM     10  N   UNL     1      14.378   5.861  19.975  1.00  0.00    -0.240 NA
ATOM     11  S   UNL     1      14.872   3.125  21.351  1.00  0.00     0.239 S 
ATOM     12  C   UNL     1      14.219   4.790  19.260  1.00  0.00     0.205 C 
ATOM     13  O   UNL     1      13.831   2.210  21.785  1.00  0.00    -0.206 OA
ATOM     14  N   UNL     1      14.570   3.494  19.697  1.00  0.00    -0.243 N 
ATOM     15  O   UNL     1      16.269   2.826  21.386  1.00  0.00    -0.206 OA
ATOM     16  N   UNL     1      13.664   4.823  18.009  1.00  0.00    -0.369 N 
ATOM     17  C   UNL     1      14.604   7.130  21.931  1.00  0.00     0.044 C 
ATOM     18  C   UNL     1      14.498   2.304  18.826  1.00  0.00     0.167 C 
ATOM     19  H   UNL     1      13.386   5.683  17.617  1.00  0.00     0.159 HD
ATOM     20  H   UNL     1      13.542   3.988  17.502  1.00  0.00     0.159 HD
ENDBRANCH   1   8
BRANCH   3  21
ATOM     21  N   UNL     1      19.500   5.101  23.199  1.00  0.00    -0.321 N 
ATOM     22  C   UNL     1      19.357   5.538  24.504  1.00  0.00     0.274 C 
ATOM     23  O   UNL     1      18.640   6.462  24.863  1.00  0.00    -0.267 OA
ATOM     24  H   UNL     1      20.199   4.424  23.046  1.00  0.00     0.170 HD
BRANCH  22  25
ATOM     25  C   UNL     1      20.127   4.773  25.515  1.00  0.00     0.128 A 
ATOM     26  N   UNL     1      20.808   3.714  25.066  1.00  0.00    -0.248 NA
ATOM     27  C   UNL     1      20.119   5.176  26.840  1.00  0.00     0.037 A 
ATOM     28  C   UNL     1      21.509   3.003  25.964  1.00  0.00     0.151 A 
ATOM     29  C   UNL     1      20.855   4.426  27.740  1.00  0.00     0.043 A 
ATOM     30  C   UNL     1      21.558   3.321  27.302  1.00  0.00     0.141 A 
ATOM     31  F   UNL     1      22.295   2.569  28.138  1.00  0.00    -0.205 F 
ENDBRANCH  22  25
ENDBRANCH   3  21
TORSDOF 3
ENDMDL
MODEL 4
REMARK VINA RESULT:    -9.021      9.955     11.743
REMARK INTER + INTRA:         -10.228
REMARK INTER:                  -9.899
REMARK INTRA:                  -0.329
REMARK UNBOUND:                 0.375
REMARK SMILES CN1C(N)=N[C@](C)(c2cc(NC(=O)c3ccc(F)cn3)ccc2F)CS1(=O)=O
REMARK SMILES IDX 8 1 9 2 10 3 21 4 22 5 23 6 24 7 6 8 25 9 5 10 26 11 3 12
REMARK SMILES IDX 27 13 2 14 28 15 4 16 7 17 1 18 11 21 12 22 13 23 14 25
REMARK SMILES IDX 20 26 15 27 19 28 16 29 17 30 18 31
REMARK H PARENT 4 19 4 20 11 24
ROOT
ATOM      1  C   UNL     1      24.263  11.812  20.425  1.00  0.00     0.018 A 
ATOM      2  C   UNL     1      24.065  12.243  21.735  1.00  0.00     0.035 A 
ATOM      3  C   UNL     1      23.453  11.457  22.685  1.00  0.00     0.042 A 
ATOM      4  C   UNL     1      22.986  10.191  22.355  1.00  0.00     0.029 A 
ATOM      5  C   UNL     1      23.177   9.744  21.059  1.00  0.00     0.042 A 
ATOM      6  C   UNL     1      23.821  10.532  20.125  1.00  0.00     0.129 A 
ATOM      7  F   UNL     1      24.022  10.059  18.869  1.00  0.00    -0.207 F 
ENDROOT
BRANCH   1   8
ATOM      8  C   UNL     1      24.945  12.703  19.399  1.00  0.00     0.105 C 
ATOM      9  C   UNL     1      26.188  12.118  18.766  1.00  0.00     0.195 C 
ATOM     10  N   UNL     1      25.232  14.034  19.933  1.00  0.00    -0.240 NA
ATOM     11  S   UNL     1      27.454  11.870  19.985  1.00  0.00     0.239 S 
ATOM     12  C   UNL     1      26.277  14.262  20.667  1.00  0.00     0.205 C 
ATOM     13  O   UNL     1      28.724  11.963  19.287  1.00  0.00    -0.206 OA
ATOM     14  N   UNL     1      27.283  13.304  20.923  1.00  0.00    -0.243 N 
ATOM     15  O   UNL     1      27.112  10.823  20.895  1.00  0.00    -0.206 OA
ATOM     16  N   UNL     1      26.511  15.481  21.246  1.00  0.00    -0.369 N 
ATOM     17  C   UNL     1      23.959  12.995  18.264  1.00  0.00     0.044 C 
ATOM     18  C   UNL     1      28.399  13.539  21.859  1.00  0.00     0.167 C 
ATOM     19  H   UNL     1      25.866  16.215  21.125  1.00  0.00     0.159 HD
ATOM     20  H   UNL     1      27.324  15.623  21.783  1.00  0.00     0.159 HD
ENDBRANCH   1   8
BRANCH   3  21
ATOM     21  N   UNL     1      23.314  12.011  23.964  1.00  0.00    -0.321 N 
ATOM     22  C   UNL     1      22.360  12.909  24.409  1.00  0.00     0.274 C 
ATOM     23  O   UNL     1      21.539  13.475  23.699  1.00  0.00    -0.267 OA
ATOM     24  H   UNL     1      23.979  11.725  24.631  1.00  0.00     0.170 HD
BRANCH  22  25
ATOM     25  C   UNL     1      22.348  13.146  25.873  1.00  0.00     0.128 A 
ATOM     26  N   UNL     1      23.364  13.862  26.366  1.00  0.00    -0.248 NA
ATOM     27  C   UNL     1      21.315  12.644  26.646  1.00  0.00     0.037 A 
ATOM     28  C   UNL     1      23.377  14.086  27.690  1.00  0.00     0.151 A 
ATOM     29  C   UNL     1      21.354  12.897  28.006  1.00  0.00     0.043 A 
ATOM     30  C   UNL     1      22.399  13.624  28.542  1.00  0.00     0.141 A 
ATOM     31  F   UNL     1      22.474  13.902  29.854  1.00  0.00    -0.205 F 
ENDBRANCH  22  25
ENDBRANCH   3  21
TORSDOF 3
ENDMDL
MODEL 5
REMARK VINA RESULT:    -8.691      4.576      5.998
REMARK INTER + INTRA:          -9.840
REMARK INTER:                  -9.698
REMARK INTRA:                  -0.142
REMARK UNBOUND:                 0.375
REMARK SMILES CN1C(N)=N[C@](C)(c2cc(NC(=O)c3ccc(F)cn3)ccc2F)CS1(=O)=O
REMARK SMILES IDX 8 1 9 2 10 3 21 4 22 5 23 6 24 7 6 8 25 9 5 10 26 11 3 12
REMARK SMILES IDX 27 13 2 14 28 15 4 16 7 17 1 18 11 21 12 22 13 23 14 25
REMARK SMILES IDX 20 26 15 27 19 28 16 29 17 30 18 31
REMARK H PARENT 4 19 4 20 11 24
ROOT
ATOM      1  C   UNL     1      16.572   7.637  21.504  1.00  0.00     0.018 A 
ATOM      2  C   UNL     1      17.420   8.511  22.181  1.00  0.00     0.035 A 
ATOM      3  C   UNL     1      16.951   9.601  22.878  1.00  0.00     0.042 A 
ATOM      4  C   UNL     1      15.591   9.882  22.911  1.00  0.00     0.029 A 
ATOM      5  C   UNL     1      14.733   9.023  22.247  1.00  0.00     0.042 A 
ATOM      6  C   UNL     1      15.215   7.916  21.578  1.00  0.00     0.129 A 
ATOM      7  F   UNL     1      14.350   7.072  20.960  1.00  0.00    -0.207 F 
ENDROOT
BRANCH   1   8
ATOM      8  C   UNL     1      17.121   6.439  20.745  1.00  0.00     0.105 C 
ATOM      9  C   UNL     1      16.543   5.102  21.153  1.00  0.00     0.195 C 
ATOM     10  N   UNL     1      18.582   6.387  20.784  1.00  0.00    -0.240 NA
ATOM     11  S   UNL     1      16.954   4.729  22.839  1.00  0.00     0.239 S 
ATOM     12  C   UNL     1      19.219   5.899  21.803  1.00  0.00     0.205 C 
ATOM     13  O   UNL     1      16.979   3.282  22.949  1.00  0.00    -0.206 OA
ATOM     14  N   UNL     1      18.586   5.273  22.900  1.00  0.00    -0.243 N 
ATOM     15  O   UNL     1      16.272   5.593  23.751  1.00  0.00    -0.206 OA
ATOM     16  N   UNL     1      20.585   5.925  21.891  1.00  0.00    -0.369 N 
ATOM     17  C   UNL     1      16.824   6.620  19.254  1.00  0.00     0.044 C 
ATOM     18  C   UNL     1      19.315   4.835  24.107  1.00  0.00     0.167 C 
ATOM     19  H   UNL     1      21.117   6.340  21.173  1.00  0.00     0.159 HD
ATOM     20  H   UNL     1      21.036   5.528  22.671  1.00  0.00     0.159 HD
ENDBRANCH   1   8
BRANCH   3  21
ATOM     21  N   UNL     1      17.910  10.401  23.513  1.00  0.00    -0.321 N 
ATOM     22  C   UNL     1      17.832  11.014  24.750  1.00  0.00     0.274 C 
ATOM     23  O   UNL     1      16.830  11.059  25.452  1.00  0.00    -0.267 OA
ATOM     24  H   UNL     1      18.747  10.545  23.014  1.00  0.00     0.170 HD
BRANCH  22  25
ATOM     25  C   UNL     1      19.094  11.621  25.238  1.00  0.00     0.128 A 
ATOM     26  N   UNL     1      19.529  11.205  26.432  1.00  0.00    -0.248 NA
ATOM     27  C   UNL     1      19.758  12.553  24.460  1.00  0.00     0.037 A 
ATOM     28  C   UNL     1      20.669  11.743  26.896  1.00  0.00     0.151 A 
ATOM     29  C   UNL     1      20.933  13.085  24.963  1.00  0.00     0.043 A 
ATOM     30  C   UNL     1      21.397  12.682  26.200  1.00  0.00     0.141 A 
ATOM     31  F   UNL     1      22.536  13.163  26.724  1.00  0.00    -0.205 F 
ENDBRANCH  22  25
ENDBRANCH   3  21
TORSDOF 3
ENDMDL
MODEL 6
REMARK VINA RESULT:    -8.413      5.541      7.979
REMARK INTER + INTRA:          -9.513
REMARK INTER:                  -9.888
REMARK INTRA:                   0.375
REMARK UNBOUND:                 0.375
REMARK SMILES CN1C(N)=N[C@](C)(c2cc(NC(=O)c3ccc(F)cn3)ccc2F)CS1(=O)=O
REMARK SMILES IDX 8 1 9 2 10 3 21 4 22 5 23 6 24 7 6 8 25 9 5 10 26 11 3 12
REMARK SMILES IDX 27 13 2 14 28 15 4 16 7 17 1 18 11 21 12 22 13 23 14 25
REMARK SMILES IDX 20 26 15 27 19 28 16 29 17 30 18 31
REMARK H PARENT 4 19 4 20 11 24
ROOT
ATOM      1  C   UNL     1      17.768  10.107  24.267  1.00  0.00     0.018 A 
ATOM      2  C   UNL     1      18.359   9.072  24.991  1.00  0.00     0.035 A 
ATOM      3  C   UNL     1      18.562   7.821  24.455  1.00  0.00     0.042 A 
ATOM      4  C   UNL     1      18.155   7.538  23.157  1.00  0.00     0.029 A 
ATOM      5  C   UNL     1      17.569   8.554  22.423  1.00  0.00     0.042 A 
ATOM      6  C   UNL     1      17.402   9.813  22.963  1.00  0.00     0.129 A 
ATOM      7  F   UNL     1      16.851  10.801  22.211  1.00  0.00    -0.207 F 
ENDROOT
BRANCH   1   8
ATOM      8  C   UNL     1      17.561  11.480  24.887  1.00  0.00     0.105 C 
ATOM      9  C   UNL     1      18.428  12.579  24.314  1.00  0.00     0.195 C 
ATOM     10  N   UNL     1      17.687  11.450  26.343  1.00  0.00    -0.240 NA
ATOM     11  S   UNL     1      20.144  12.253  24.629  1.00  0.00     0.239 S 
ATOM     12  C   UNL     1      18.845  11.479  26.928  1.00  0.00     0.205 C 
ATOM     13  O   UNL     1      20.809  13.543  24.678  1.00  0.00    -0.206 OA
ATOM     14  N   UNL     1      20.067  11.658  26.243  1.00  0.00    -0.243 N 
ATOM     15  O   UNL     1      20.616  11.134  23.874  1.00  0.00    -0.206 OA
ATOM     16  N   UNL     1      18.981  11.362  28.285  1.00  0.00    -0.369 N 
ATOM     17  C   UNL     1      16.104  11.903  24.678  1.00  0.00     0.044 C 
ATOM     18  C   UNL     1      21.383  11.565  26.906  1.00  0.00     0.167 C 
ATOM     19  H   UNL     1      18.185  11.233  28.850  1.00  0.00     0.159 HD
ATOM     20  H   UNL     1      19.875  11.406  28.696  1.00  0.00     0.159 HD
ENDBRANCH   1   8
BRANCH   3  21
ATOM     21  N   UNL     1      19.164   6.870  25.289  1.00  0.00    -0.321 N 
ATOM     22  C   UNL     1      19.410   5.534  25.028  1.00  0.00     0.274 C 
ATOM     23  O   UNL     1      19.014   4.924  24.044  1.00  0.00    -0.267 OA
ATOM     24  H   UNL     1      19.448   7.195  26.174  1.00  0.00     0.170 HD
BRANCH  22  25
ATOM     25  C   UNL     1      20.254   4.838  26.030  1.00  0.00     0.128 A 
ATOM     26  N   UNL     1      21.118   3.936  25.553  1.00  0.00    -0.248 NA
ATOM     27  C   UNL     1      20.128   5.147  27.373  1.00  0.00     0.037 A 
ATOM     28  C   UNL     1      21.890   3.290  26.443  1.00  0.00     0.151 A 
ATOM     29  C   UNL     1      20.941   4.469  28.264  1.00  0.00     0.043 A 
ATOM     30  C   UNL     1      21.833   3.522  27.798  1.00  0.00     0.141 A 
ATOM     31  F   UNL     1      22.649   2.846  28.624  1.00  0.00    -0.205 F 
ENDBRANCH  22  25
ENDBRANCH   3  21
TORSDOF 3
ENDMDL
MODEL 7
REMARK VINA RESULT:    -8.370      9.351     11.231
REMARK INTER + INTRA:          -9.463
REMARK INTER:                  -9.385
REMARK INTRA:                  -0.078
REMARK UNBOUND:                 0.375
REMARK SMILES CN1C(N)=N[C@](C)(c2cc(NC(=O)c3ccc(F)cn3)ccc2F)CS1(=O)=O
REMARK SMILES IDX 8 1 9 2 10 3 21 4 22 5 23 6 24 7 6 8 25 9 5 10 26 11 3 12
REMARK SMILES IDX 27 13 2 14 28 15 4 16 7 17 1 18 11 21 12 22 13 23 14 25
REMARK SMILES IDX 20 26 15 27 19 28 16 29 17 30 18 31
REMARK H PARENT 4 19 4 20 11 24
ROOT
ATOM      1  C   UNL     1      24.202  11.432  20.650  1.00  0.00     0.018 A 
ATOM      2  C   UNL     1      23.487  11.409  21.846  1.00  0.00     0.035 A 
ATOM      3  C   UNL     1      23.100  10.234  22.450  1.00  0.00     0.042 A 
ATOM      4  C   UNL     1      23.395   9.011  21.862  1.00  0.00     0.029 A 
ATOM      5  C   UNL     1      24.107   9.014  20.676  1.00  0.00     0.042 A 
ATOM      6  C   UNL     1      24.518  10.200  20.099  1.00  0.00     0.129 A 
ATOM      7  F   UNL     1      25.241  10.175  18.949  1.00  0.00    -0.207 F 
ENDROOT
BRANCH   1   8
ATOM      8  C   UNL     1      24.619  12.747  20.009  1.00  0.00     0.105 C 
ATOM      9  C   UNL     1      26.039  12.786  19.491  1.00  0.00     0.195 C 
ATOM     10  N   UNL     1      24.375  13.888  20.890  1.00  0.00    -0.240 NA
ATOM     11  S   UNL     1      27.198  12.605  20.824  1.00  0.00     0.239 S 
ATOM     12  C   UNL     1      25.204  14.209  21.835  1.00  0.00     0.205 C 
ATOM     13  O   UNL     1      28.413  13.285  20.411  1.00  0.00    -0.206 OA
ATOM     14  N   UNL     1      26.454  13.581  22.031  1.00  0.00    -0.243 N 
ATOM     15  O   UNL     1      27.163  11.288  21.378  1.00  0.00    -0.206 OA
ATOM     16  N   UNL     1      24.945  15.219  22.722  1.00  0.00    -0.369 N 
ATOM     17  C   UNL     1      23.699  13.030  18.819  1.00  0.00     0.044 C 
ATOM     18  C   UNL     1      27.329  13.872  23.184  1.00  0.00     0.167 C 
ATOM     19  H   UNL     1      24.098  15.718  22.666  1.00  0.00     0.159 HD
ATOM     20  H   UNL     1      25.606  15.447  23.416  1.00  0.00     0.159 HD
ENDBRANCH   1   8
BRANCH   3  21
ATOM     21  N   UNL     1      22.384  10.351  23.649  1.00  0.00    -0.321 N 
ATOM     22  C   UNL     1      22.641  11.183  24.723  1.00  0.00     0.274 C 
ATOM     23  O   UNL     1      23.640  11.879  24.851  1.00  0.00    -0.267 OA
ATOM     24  H   UNL     1      21.597   9.766  23.737  1.00  0.00     0.170 HD
BRANCH  22  25
ATOM     25  C   UNL     1      21.580  11.228  25.758  1.00  0.00     0.128 A 
ATOM     26  N   UNL     1      21.969  11.564  26.992  1.00  0.00    -0.248 NA
ATOM     27  C   UNL     1      20.270  10.940  25.417  1.00  0.00     0.037 A 
ATOM     28  C   UNL     1      21.026  11.607  27.948  1.00  0.00     0.151 A 
ATOM     29  C   UNL     1      19.320  10.999  26.422  1.00  0.00     0.043 A 
ATOM     30  C   UNL     1      19.699  11.332  27.708  1.00  0.00     0.141 A 
ATOM     31  F   UNL     1      18.811  11.411  28.714  1.00  0.00    -0.205 F 
ENDBRANCH  22  25
ENDBRANCH   3  21
TORSDOF 3
ENDMDL
MODEL 8
REMARK VINA RESULT:    -8.352      6.496      9.378
REMARK INTER + INTRA:          -9.441
REMARK INTER:                  -9.845
REMARK INTRA:                   0.403
REMARK UNBOUND:                 0.375
REMARK SMILES CN1C(N)=N[C@](C)(c2cc(NC(=O)c3ccc(F)cn3)ccc2F)CS1(=O)=O
REMARK SMILES IDX 8 1 9 2 10 3 21 4 22 5 23 6 24 7 6 8 25 9 5 10 26 11 3 12
REMARK SMILES IDX 27 13 2 14 28 15 4 16 7 17 1 18 11 21 12 22 13 23 14 25
REMARK SMILES IDX 20 26 15 27 19 28 16 29 17 30 18 31
REMARK H PARENT 4 19 4 20 11 24
ROOT
ATOM      1  C   UNL     1      19.527  11.133  25.018  1.00  0.00     0.018 A 
ATOM      2  C   UNL     1      19.976   9.815  25.082  1.00  0.00     0.035 A 
ATOM      3  C   UNL     1      19.193   8.751  24.695  1.00  0.00     0.042 A 
ATOM      4  C   UNL     1      17.897   8.960  24.241  1.00  0.00     0.029 A 
ATOM      5  C   UNL     1      17.435  10.262  24.168  1.00  0.00     0.042 A 
ATOM      6  C   UNL     1      18.243  11.322  24.529  1.00  0.00     0.129 A 
ATOM      7  F   UNL     1      17.776  12.593  24.421  1.00  0.00    -0.207 F 
ENDROOT
BRANCH   1   8
ATOM      8  C   UNL     1      20.417  12.288  25.450  1.00  0.00     0.105 C 
ATOM      9  C   UNL     1      21.558  11.909  26.369  1.00  0.00     0.195 C 
ATOM     10  N   UNL     1      19.647  13.386  26.032  1.00  0.00    -0.240 NA
ATOM     11  S   UNL     1      20.940  11.283  27.910  1.00  0.00     0.239 S 
ATOM     12  C   UNL     1      19.258  13.365  27.270  1.00  0.00     0.205 C 
ATOM     13  O   UNL     1      21.953  11.569  28.910  1.00  0.00    -0.206 OA
ATOM     14  N   UNL     1      19.628  12.361  28.193  1.00  0.00    -0.243 N 
ATOM     15  O   UNL     1      20.308  10.011  27.748  1.00  0.00    -0.206 OA
ATOM     16  N   UNL     1      18.462  14.344  27.802  1.00  0.00    -0.369 N 
ATOM     17  C   UNL     1      21.038  12.927  24.205  1.00  0.00     0.044 C 
ATOM     18  C   UNL     1      19.077  12.283  29.560  1.00  0.00     0.167 C 
ATOM     19  H   UNL     1      18.152  15.088  27.237  1.00  0.00     0.159 HD
ATOM     20  H   UNL     1      18.201  14.304  28.751  1.00  0.00     0.159 HD
ENDBRANCH   1   8
BRANCH   3  21
ATOM     21  N   UNL     1      19.764   7.477  24.811  1.00  0.00    -0.321 N 
ATOM     22  C   UNL     1      20.640   6.848  23.944  1.00  0.00     0.274 C 
ATOM     23  O   UNL     1      20.965   7.270  22.842  1.00  0.00    -0.267 OA
ATOM     24  H   UNL     1      19.509   6.964  25.612  1.00  0.00     0.170 HD
BRANCH  22  25
ATOM     25  C   UNL     1      21.233   5.586  24.449  1.00  0.00     0.128 A 
ATOM     26  N   UNL     1      22.436   5.260  23.964  1.00  0.00    -0.248 NA
ATOM     27  C   UNL     1      20.547   4.823  25.378  1.00  0.00     0.037 A 
ATOM     28  C   UNL     1      22.991   4.118  24.403  1.00  0.00     0.151 A 
ATOM     29  C   UNL     1      21.148   3.656  25.816  1.00  0.00     0.043 A 
ATOM     30  C   UNL     1      22.385   3.291  25.321  1.00  0.00     0.141 A 
ATOM     31  F   UNL     1      23.010   2.172  25.723  1.00  0.00    -0.205 F 
ENDBRANCH  22  25
ENDBRANCH   3  21
TORSDOF 3
ENDMDL
MODEL 9
REMARK VINA RESULT:    -8.352      3.957      5.236
REMARK INTER + INTRA:          -9.441
REMARK INTER:                  -9.036
REMARK INTRA:                  -0.405
REMARK UNBOUND:                 0.375
REMARK SMILES CN1C(N)=N[C@](C)(c2cc(NC(=O)c3ccc(F)cn3)ccc2F)CS1(=O)=O
REMARK SMILES IDX 8 1 9 2 10 3 21 4 22 5 23 6 24 7 6 8 25 9 5 10 26 11 3 12
REMARK SMILES IDX 27 13 2 14 28 15 4 16 7 17 1 18 11 21 12 22 13 23 14 25
REMARK SMILES IDX 20 26 15 27 19 28 16 29 17 30 18 31
REMARK H PARENT 4 19 4 20 11 24
ROOT
ATOM      1  C   UNL     1      18.011   7.155  22.846  1.00  0.00     0.018 A 
ATOM      2  C   UNL     1      19.163   6.463  22.475  1.00  0.00     0.035 A 
ATOM      3  C   UNL     1      20.033   5.932  23.401  1.00  0.00     0.042 A 
ATOM      4  C   UNL     1      19.797   6.092  24.760  1.00  0.00     0.029 A 
ATOM      5  C   UNL     1      18.656   6.773  25.147  1.00  0.00     0.042 A 
ATOM      6  C   UNL     1      17.776   7.272  24.207  1.00  0.00     0.129 A 
ATOM      7  F   UNL     1      16.648   7.911  24.613  1.00  0.00    -0.207 F 
ENDROOT
BRANCH   1   8
ATOM      8  C   UNL     1      17.067   7.727  21.799  1.00  0.00     0.105 C 
ATOM      9  C   UNL     1      15.631   7.266  21.911  1.00  0.00     0.195 C 
ATOM     10  N   UNL     1      17.560   7.510  20.440  1.00  0.00    -0.240 NA
ATOM     11  S   UNL     1      15.511   5.516  21.643  1.00  0.00     0.239 S 
ATOM     12  C   UNL     1      17.386   6.381  19.824  1.00  0.00     0.205 C 
ATOM     13  O   UNL     1      14.181   5.268  21.116  1.00  0.00    -0.206 OA
ATOM     14  N   UNL     1      16.621   5.313  20.342  1.00  0.00    -0.243 N 
ATOM     15  O   UNL     1      16.102   4.776  22.715  1.00  0.00    -0.206 OA
ATOM     16  N   UNL     1      17.918   6.134  18.587  1.00  0.00    -0.369 N 
ATOM     17  C   UNL     1      17.060   9.253  21.922  1.00  0.00     0.044 C 
ATOM     18  C   UNL     1      16.535   3.992  19.688  1.00  0.00     0.167 C 
ATOM     19  H   UNL     1      18.468   6.819  18.142  1.00  0.00     0.159 HD
ATOM     20  H   UNL     1      17.750   5.272  18.142  1.00  0.00     0.159 HD
ENDBRANCH   1   8
BRANCH   3  21
ATOM     21  N   UNL     1      21.155   5.262  22.896  1.00  0.00    -0.321 N 
ATOM     22  C   UNL     1      22.393   5.788  22.573  1.00  0.00     0.274 C 
ATOM     23  O   UNL     1      22.670   6.980  22.558  1.00  0.00    -0.267 OA
ATOM     24  H   UNL     1      21.048   4.294  22.753  1.00  0.00     0.170 HD
BRANCH  22  25
ATOM     25  C   UNL     1      23.444   4.788  22.261  1.00  0.00     0.128 A 
ATOM     26  N   UNL     1      24.250   5.076  21.234  1.00  0.00    -0.248 NA
ATOM     27  C   UNL     1      23.553   3.639  23.025  1.00  0.00     0.037 A 
ATOM     28  C   UNL     1      25.206   4.183  20.930  1.00  0.00     0.151 A 
ATOM     29  C   UNL     1      24.552   2.742  22.691  1.00  0.00     0.043 A 
ATOM     30  C   UNL     1      25.390   3.010  21.626  1.00  0.00     0.141 A 
ATOM     31  F   UNL     1      26.380   2.173  21.271  1.00  0.00    -0.205 F 
ENDBRANCH  22  25
ENDBRANCH   3  21
TORSDOF 3
ENDMDL
MODEL 10
REMARK VINA RESULT:    -8.303      8.775     10.784
REMARK INTER + INTRA:          -9.384
REMARK INTER:                  -9.511
REMARK INTRA:                   0.127
REMARK UNBOUND:                 0.375
REMARK SMILES CN1C(N)=N[C@](C)(c2cc(NC(=O)c3ccc(F)cn3)ccc2F)CS1(=O)=O
REMARK SMILES IDX 8 1 9 2 10 3 21 4 22 5 23 6 24 7 6 8 25 9 5 10 26 11 3 12
REMARK SMILES IDX 27 13 2 14 28 15 4 16 7 17 1 18 11 21 12 22 13 23 14 25
REMARK SMILES IDX 20 26 15 27 19 28 16 29 17 30 18 31
REMARK H PARENT 4 19 4 20 11 24
ROOT
ATOM      1  C   UNL     1      24.773  11.207  19.734  1.00  0.00     0.018 A 
ATOM      2  C   UNL     1      24.055  10.560  20.740  1.00  0.00     0.035 A 
ATOM      3  C   UNL     1      24.181   9.212  20.983  1.00  0.00     0.042 A 
ATOM      4  C   UNL     1      25.026   8.432  20.204  1.00  0.00     0.029 A 
ATOM      5  C   UNL     1      25.749   9.057  19.203  1.00  0.00     0.042 A 
ATOM      6  C   UNL     1      25.637  10.417  18.991  1.00  0.00     0.129 A 
ATOM      7  F   UNL     1      26.379  11.011  18.022  1.00  0.00    -0.207 F 
ENDROOT
BRANCH   1   8
ATOM      8  C   UNL     1      24.614  12.700  19.491  1.00  0.00     0.105 C 
ATOM      9  C   UNL     1      25.908  13.481  19.440  1.00  0.00     0.195 C 
ATOM     10  N   UNL     1      23.694  13.316  20.445  1.00  0.00    -0.240 NA
ATOM     11  S   UNL     1      26.743  13.416  21.005  1.00  0.00     0.239 S 
ATOM     12  C   UNL     1      24.075  13.658  21.637  1.00  0.00     0.205 C 
ATOM     13  O   UNL     1      27.532  14.631  21.104  1.00  0.00    -0.206 OA
ATOM     14  N   UNL     1      25.413  13.584  22.086  1.00  0.00    -0.243 N 
ATOM     15  O   UNL     1      27.245  12.107  21.282  1.00  0.00    -0.206 OA
ATOM     16  N   UNL     1      23.203  14.154  22.569  1.00  0.00    -0.369 N 
ATOM     17  C   UNL     1      23.909  12.910  18.149  1.00  0.00     0.044 C 
ATOM     18  C   UNL     1      25.810  13.859  23.480  1.00  0.00     0.167 C 
ATOM     19  H   UNL     1      22.248  14.244  22.350  1.00  0.00     0.159 HD
ATOM     20  H   UNL     1      23.532  14.421  23.458  1.00  0.00     0.159 HD
ENDBRANCH   1   8
BRANCH   3  21
ATOM     21  N   UNL     1      23.401   8.686  22.022  1.00  0.00    -0.321 N 
ATOM     22  C   UNL     1      22.650   9.371  22.960  1.00  0.00     0.274 C 
ATOM     23  O   UNL     1      22.650  10.585  23.113  1.00  0.00    -0.267 OA
ATOM     24  H   UNL     1      23.386   7.704  22.092  1.00  0.00     0.170 HD
BRANCH  22  25
ATOM     25  C   UNL     1      21.765   8.528  23.800  1.00  0.00     0.128 A 
ATOM     26  N   UNL     1      21.902   7.205  23.664  1.00  0.00    -0.248 NA
ATOM     27  C   UNL     1      20.869   9.121  24.672  1.00  0.00     0.037 A 
ATOM     28  C   UNL     1      21.108   6.420  24.411  1.00  0.00     0.151 A 
ATOM     29  C   UNL     1      20.069   8.287  25.433  1.00  0.00     0.043 A 
ATOM     30  C   UNL     1      20.183   6.917  25.301  1.00  0.00     0.141 A 
ATOM     31  F   UNL     1      19.435   6.067  26.026  1.00  0.00    -0.205 F 
ENDBRANCH  22  25
ENDBRANCH   3  21
TORSDOF 3
ENDMDL
MODEL 11
REMARK VINA RESULT:    -8.252      5.514      7.397
REMARK INTER + INTRA:          -9.324
REMARK INTER:                  -8.913
REMARK INTRA:                  -0.411
REMARK UNBOUND:                 0.375
REMARK SMILES CN1C(N)=N[C@](C)(c2cc(NC(=O)c3ccc(F)cn3)ccc2F)CS1(=O)=O
REMARK SMILES IDX 8 1 9 2 10 3 21 4 22 5 23 6 24 7 6 8 25 9 5 10 26 11 3 12
REMARK SMILES IDX 27 13 2 14 28 15 4 16 7 17 1 18 11 21 12 22 13 23 14 25
REMARK SMILES IDX 20 26 15 27 19 28 16 29 17 30 18 31
REMARK H PARENT 4 19 4 20 11 24
ROOT
ATOM      1  C   UNL     1      18.487   7.791  23.100  1.00  0.00     0.018 A 
ATOM      2  C   UNL     1      19.396   8.773  23.490  1.00  0.00     0.035 A 
ATOM      3  C   UNL     1      19.025   9.861  24.247  1.00  0.00     0.042 A 
ATOM      4  C   UNL     1      17.702  10.029  24.636  1.00  0.00     0.029 A 
ATOM      5  C   UNL     1      16.786   9.062  24.261  1.00  0.00     0.042 A 
ATOM      6  C   UNL     1      17.179   7.959  23.528  1.00  0.00     0.129 A 
ATOM      7  F   UNL     1      16.267   7.010  23.198  1.00  0.00    -0.207 F 
ENDROOT
BRANCH   1   8
ATOM      8  C   UNL     1      18.929   6.599  22.265  1.00  0.00     0.105 C 
ATOM      9  C   UNL     1      18.681   5.247  22.897  1.00  0.00     0.195 C 
ATOM     10  N   UNL     1      20.325   6.709  21.847  1.00  0.00    -0.240 NA
ATOM     11  S   UNL     1      19.631   5.067  24.385  1.00  0.00     0.239 S 
ATOM     12  C   UNL     1      21.301   6.382  22.637  1.00  0.00     0.205 C 
ATOM     13  O   UNL     1      19.875   3.645  24.550  1.00  0.00    -0.206 OA
ATOM     14  N   UNL     1      21.119   5.787  23.905  1.00  0.00    -0.243 N 
ATOM     15  O   UNL     1      19.154   5.926  25.423  1.00  0.00    -0.206 OA
ATOM     16  N   UNL     1      22.613   6.563  22.291  1.00  0.00    -0.369 N 
ATOM     17  C   UNL     1      18.170   6.619  20.935  1.00  0.00     0.044 C 
ATOM     18  C   UNL     1      22.232   5.535  24.842  1.00  0.00     0.167 C 
ATOM     19  H   UNL     1      22.842   6.970  21.424  1.00  0.00     0.159 HD
ATOM     20  H   UNL     1      23.328   6.285  22.909  1.00  0.00     0.159 HD
ENDBRANCH   1   8
BRANCH   3  21
ATOM     21  N   UNL     1      20.036  10.776  24.569  1.00  0.00    -0.321 N 
ATOM     22  C   UNL     1      20.782  10.856  25.731  1.00  0.00     0.274 C 
ATOM     23  O   UNL     1      20.581  10.198  26.743  1.00  0.00    -0.267 OA
ATOM     24  H   UNL     1      20.242  11.448  23.879  1.00  0.00     0.170 HD
BRANCH  22  25
ATOM     25  C   UNL     1      21.923  11.802  25.687  1.00  0.00     0.128 A 
ATOM     26  N   UNL     1      22.056  12.620  26.737  1.00  0.00    -0.248 NA
ATOM     27  C   UNL     1      22.784  11.796  24.604  1.00  0.00     0.037 A 
ATOM     28  C   UNL     1      23.080  13.489  26.718  1.00  0.00     0.151 A 
ATOM     29  C   UNL     1      23.834  12.699  24.616  1.00  0.00     0.043 A 
ATOM     30  C   UNL     1      23.985  13.563  25.684  1.00  0.00     0.141 A 
ATOM     31  F   UNL     1      24.994  14.449  25.744  1.00  0.00    -0.205 F 
ENDBRANCH  22  25
ENDBRANCH   3  21
TORSDOF 3
ENDMDL
MODEL 12
REMARK VINA RESULT:    -8.227      6.167     10.053
REMARK INTER + INTRA:          -9.295
REMARK INTER:                  -9.248
REMARK INTRA:                  -0.047
REMARK UNBOUND:                 0.375
REMARK SMILES CN1C(N)=N[C@](C)(c2cc(NC(=O)c3ccc(F)cn3)ccc2F)CS1(=O)=O
REMARK SMILES IDX 8 1 9 2 10 3 21 4 22 5 23 6 24 7 6 8 25 9 5 10 26 11 3 12
REMARK SMILES IDX 27 13 2 14 28 15 4 16 7 17 1 18 11 21 12 22 13 23 14 25
REMARK SMILES IDX 20 26 15 27 19 28 16 29 17 30 18 31
REMARK H PARENT 4 19 4 20 11 24
ROOT
ATOM      1  C   UNL     1      19.687  11.104  25.208  1.00  0.00     0.018 A 
ATOM      2  C   UNL     1      18.882  10.546  24.216  1.00  0.00     0.035 A 
ATOM      3  C   UNL     1      18.673   9.189  24.114  1.00  0.00     0.042 A 
ATOM      4  C   UNL     1      19.288   8.314  25.000  1.00  0.00     0.029 A 
ATOM      5  C   UNL     1      20.087   8.850  25.994  1.00  0.00     0.042 A 
ATOM      6  C   UNL     1      20.262  10.216  26.104  1.00  0.00     0.129 A 
ATOM      7  F   UNL     1      21.028  10.718  27.106  1.00  0.00    -0.207 F 
ENDROOT
BRANCH   1   8
ATOM      8  C   UNL     1      19.896  12.608  25.297  1.00  0.00     0.105 C 
ATOM      9  C   UNL     1      19.933  13.167  26.702  1.00  0.00     0.195 C 
ATOM     10  N   UNL     1      18.926  13.345  24.488  1.00  0.00    -0.240 NA
ATOM     11  S   UNL     1      18.372  12.932  27.512  1.00  0.00     0.239 S 
ATOM     12  C   UNL     1      17.728  13.594  24.920  1.00  0.00     0.205 C 
ATOM     13  O   UNL     1      18.248  13.998  28.490  1.00  0.00    -0.206 OA
ATOM     14  N   UNL     1      17.285  13.292  26.226  1.00  0.00    -0.243 N 
ATOM     15  O   UNL     1      18.125  11.552  27.793  1.00  0.00    -0.206 OA
ATOM     16  N   UNL     1      16.783  14.205  24.140  1.00  0.00    -0.369 N 
ATOM     17  C   UNL     1      21.232  12.961  24.637  1.00  0.00     0.044 C 
ATOM     18  C   UNL     1      15.885  13.467  26.662  1.00  0.00     0.167 C 
ATOM     19  H   UNL     1      16.998  14.455  23.212  1.00  0.00     0.159 HD
ATOM     20  H   UNL     1      15.889  14.394  24.507  1.00  0.00     0.159 HD
ENDBRANCH   1   8
BRANCH   3  21
ATOM     21  N   UNL     1      17.844   8.759  23.069  1.00  0.00    -0.321 N 
ATOM     22  C   UNL     1      18.140   7.869  22.052  1.00  0.00     0.274 C 
ATOM     23  O   UNL     1      19.247   7.400  21.826  1.00  0.00    -0.267 OA
ATOM     24  H   UNL     1      16.936   9.139  23.058  1.00  0.00     0.170 HD
BRANCH  22  25
ATOM     25  C   UNL     1      16.985   7.453  21.219  1.00  0.00     0.128 A 
ATOM     26  N   UNL     1      17.263   7.069  19.969  1.00  0.00    -0.248 NA
ATOM     27  C   UNL     1      15.708   7.468  21.753  1.00  0.00     0.037 A 
ATOM     28  C   UNL     1      16.233   6.692  19.195  1.00  0.00     0.151 A 
ATOM     29  C   UNL     1      14.668   7.068  20.932  1.00  0.00     0.043 A 
ATOM     30  C   UNL     1      14.928   6.678  19.632  1.00  0.00     0.141 A 
ATOM     31  F   UNL     1      13.952   6.274  18.802  1.00  0.00    -0.205 F 
ENDBRANCH  22  25
ENDBRANCH   3  21
TORSDOF 3
ENDMDL
MODEL 13
REMARK VINA RESULT:    -8.194     10.982     12.926
REMARK INTER + INTRA:          -9.256
REMARK INTER:                  -9.621
REMARK INTRA:                   0.364
REMARK UNBOUND:                 0.375
REMARK SMILES CN1C(N)=N[C@](C)(c2cc(NC(=O)c3ccc(F)cn3)ccc2F)CS1(=O)=O
REMARK SMILES IDX 8 1 9 2 10 3 21 4 22 5 23 6 24 7 6 8 25 9 5 10 26 11 3 12
REMARK SMILES IDX 27 13 2 14 28 15 4 16 7 17 1 18 11 21 12 22 13 23 14 25
REMARK SMILES IDX 20 26 15 27 19 28 16 29 17 30 18 31
REMARK H PARENT 4 19 4 20 11 24
ROOT
ATOM      1  C   UNL     1      25.450  12.388  19.327  1.00  0.00     0.018 A 
ATOM      2  C   UNL     1      26.117  11.212  18.988  1.00  0.00     0.035 A 
ATOM      3  C   UNL     1      25.454  10.024  18.777  1.00  0.00     0.042 A 
ATOM      4  C   UNL     1      24.074   9.955  18.920  1.00  0.00     0.029 A 
ATOM      5  C   UNL     1      23.395  11.114  19.252  1.00  0.00     0.042 A 
ATOM      6  C   UNL     1      24.070  12.305  19.429  1.00  0.00     0.129 A 
ATOM      7  F   UNL     1      23.377  13.434  19.726  1.00  0.00    -0.207 F 
ENDROOT
BRANCH   1   8
ATOM      8  C   UNL     1      26.211  13.686  19.551  1.00  0.00     0.105 C 
ATOM      9  C   UNL     1      27.655  13.518  19.969  1.00  0.00     0.195 C 
ATOM     10  N   UNL     1      25.519  14.575  20.482  1.00  0.00    -0.240 NA
ATOM     11  S   UNL     1      27.761  12.715  21.548  1.00  0.00     0.239 S 
ATOM     12  C   UNL     1      25.614  14.423  21.767  1.00  0.00     0.205 C 
ATOM     13  O   UNL     1      28.998  13.167  22.160  1.00  0.00    -0.206 OA
ATOM     14  N   UNL     1      26.468  13.483  22.386  1.00  0.00    -0.243 N 
ATOM     15  O   UNL     1      27.355  11.347  21.473  1.00  0.00    -0.206 OA
ATOM     16  N   UNL     1      24.902  15.191  22.649  1.00  0.00    -0.369 N 
ATOM     17  C   UNL     1      26.212  14.489  18.247  1.00  0.00     0.044 C 
ATOM     18  C   UNL     1      26.473  13.236  23.842  1.00  0.00     0.167 C 
ATOM     19  H   UNL     1      24.279  15.875  22.313  1.00  0.00     0.159 HD
ATOM     20  H   UNL     1      25.013  15.060  23.618  1.00  0.00     0.159 HD
ENDBRANCH   1   8
BRANCH   3  21
ATOM     21  N   UNL     1      26.243   8.915  18.445  1.00  0.00    -0.321 N 
ATOM     22  C   UNL     1      26.483   7.779  19.196  1.00  0.00     0.274 C 
ATOM     23  O   UNL     1      26.136   7.616  20.359  1.00  0.00    -0.267 OA
ATOM     24  H   UNL     1      26.681   8.949  17.564  1.00  0.00     0.170 HD
BRANCH  22  25
ATOM     25  C   UNL     1      27.191   6.687  18.484  1.00  0.00     0.128 A 
ATOM     26  N   UNL     1      28.286   6.203  19.079  1.00  0.00    -0.248 NA
ATOM     27  C   UNL     1      26.701   6.219  17.277  1.00  0.00     0.037 A 
ATOM     28  C   UNL     1      28.946   5.216  18.450  1.00  0.00     0.151 A 
ATOM     29  C   UNL     1      27.399   5.197  16.657  1.00  0.00     0.043 A 
ATOM     30  C   UNL     1      28.541   4.689  17.245  1.00  0.00     0.141 A 
ATOM     31  F   UNL     1      29.246   3.691  16.685  1.00  0.00    -0.205 F 
ENDBRANCH  22  25
ENDBRANCH   3  21
TORSDOF 3
ENDMDL
MODEL 14
REMARK VINA RESULT:    -8.166     10.240     12.073
REMARK INTER + INTRA:          -9.223
REMARK INTER:                  -8.839
REMARK INTRA:                  -0.384
REMARK UNBOUND:                 0.375
REMARK SMILES CN1C(N)=N[C@](C)(c2cc(NC(=O)c3ccc(F)cn3)ccc2F)CS1(=O)=O
REMARK SMILES IDX 8 1 9 2 10 3 21 4 22 5 23 6 24 7 6 8 25 9 5 10 26 11 3 12
REMARK SMILES IDX 27 13 2 14 28 15 4 16 7 17 1 18 11 21 12 22 13 23 14 25
REMARK SMILES IDX 20 26 15 27 19 28 16 29 17 30 18 31
REMARK H PARENT 4 19 4 20 11 24
ROOT
ATOM      1  C   UNL     1      25.356  10.955  19.653  1.00  0.00     0.018 A 
ATOM      2  C   UNL     1      25.990   9.877  20.270  1.00  0.00     0.035 A 
ATOM      3  C   UNL     1      26.133   8.655  19.653  1.00  0.00     0.042 A 
ATOM      4  C   UNL     1      25.621   8.446  18.379  1.00  0.00     0.029 A 
ATOM      5  C   UNL     1      24.991   9.506  17.750  1.00  0.00     0.042 A 
ATOM      6  C   UNL     1      24.883  10.736  18.368  1.00  0.00     0.129 A 
ATOM      7  F   UNL     1      24.287  11.767  17.717  1.00  0.00    -0.207 F 
ENDROOT
BRANCH   1   8
ATOM      8  C   UNL     1      25.216  12.294  20.360  1.00  0.00     0.105 C 
ATOM      9  C   UNL     1      25.628  13.497  19.541  1.00  0.00     0.195 C 
ATOM     10  N   UNL     1      25.902  12.307  21.651  1.00  0.00    -0.240 NA
ATOM     11  S   UNL     1      27.359  13.428  19.153  1.00  0.00     0.239 S 
ATOM     12  C   UNL     1      27.180  12.513  21.742  1.00  0.00     0.205 C 
ATOM     13  O   UNL     1      27.802  14.802  18.993  1.00  0.00    -0.206 OA
ATOM     14  N   UNL     1      28.000  12.856  20.645  1.00  0.00    -0.243 N 
ATOM     15  O   UNL     1      27.651  12.377  18.230  1.00  0.00    -0.206 OA
ATOM     16  N   UNL     1      27.849  12.440  22.935  1.00  0.00    -0.369 N 
ATOM     17  C   UNL     1      23.749  12.497  20.749  1.00  0.00     0.044 C 
ATOM     18  C   UNL     1      29.469  12.966  20.742  1.00  0.00     0.167 C 
ATOM     19  H   UNL     1      27.362  12.208  23.758  1.00  0.00     0.159 HD
ATOM     20  H   UNL     1      28.816  12.621  22.969  1.00  0.00     0.159 HD
ENDBRANCH   1   8
BRANCH   3  21
ATOM     21  N   UNL     1      26.787   7.655  20.385  1.00  0.00    -0.321 N 
ATOM     22  C   UNL     1      26.236   6.551  21.009  1.00  0.00     0.274 C 
ATOM     23  O   UNL     1      25.037   6.335  21.131  1.00  0.00    -0.267 OA
ATOM     24  H   UNL     1      27.764   7.751  20.465  1.00  0.00     0.170 HD
BRANCH  22  25
ATOM     25  C   UNL     1      27.214   5.561  21.525  1.00  0.00     0.128 A 
ATOM     26  N   UNL     1      26.705   4.503  22.163  1.00  0.00    -0.248 NA
ATOM     27  C   UNL     1      28.569   5.759  21.323  1.00  0.00     0.037 A 
ATOM     28  C   UNL     1      27.572   3.595  22.643  1.00  0.00     0.151 A 
ATOM     29  C   UNL     1      29.436   4.804  21.823  1.00  0.00     0.043 A 
ATOM     30  C   UNL     1      28.936   3.707  22.497  1.00  0.00     0.141 A 
ATOM     31  F   UNL     1      29.738   2.749  22.992  1.00  0.00    -0.205 F 
ENDBRANCH  22  25
ENDBRANCH   3  21
TORSDOF 3
ENDMDL
MODEL 15
REMARK VINA RESULT:    -8.154      6.033      8.353
REMARK INTER + INTRA:          -9.209
REMARK INTER:                  -9.267
REMARK INTRA:                   0.058
REMARK UNBOUND:                 0.375
REMARK SMILES CN1C(N)=N[C@](C)(c2cc(NC(=O)c3ccc(F)cn3)ccc2F)CS1(=O)=O
REMARK SMILES IDX 8 1 9 2 10 3 21 4 22 5 23 6 24 7 6 8 25 9 5 10 26 11 3 12
REMARK SMILES IDX 27 13 2 14 28 15 4 16 7 17 1 18 11 21 12 22 13 23 14 25
REMARK SMILES IDX 20 26 15 27 19 28 16 29 17 30 18 31
REMARK H PARENT 4 19 4 20 11 24
ROOT
ATOM      1  C   UNL     1      20.824   6.671  23.914  1.00  0.00     0.018 A 
ATOM      2  C   UNL     1      21.415   7.746  23.252  1.00  0.00     0.035 A 
ATOM      3  C   UNL     1      22.506   7.592  22.426  1.00  0.00     0.042 A 
ATOM      4  C   UNL     1      23.076   6.339  22.240  1.00  0.00     0.029 A 
ATOM      5  C   UNL     1      22.500   5.260  22.887  1.00  0.00     0.042 A 
ATOM      6  C   UNL     1      21.387   5.424  23.687  1.00  0.00     0.129 A 
ATOM      7  F   UNL     1      20.823   4.345  24.287  1.00  0.00    -0.207 F 
ENDROOT
BRANCH   1   8
ATOM      8  C   UNL     1      19.618   6.873  24.818  1.00  0.00     0.105 C 
ATOM      9  C   UNL     1      18.460   5.935  24.560  1.00  0.00     0.195 C 
ATOM     10  N   UNL     1      19.153   8.259  24.811  1.00  0.00    -0.240 NA
ATOM     11  S   UNL     1      17.791   6.197  22.937  1.00  0.00     0.239 S 
ATOM     12  C   UNL     1      18.388   8.716  23.868  1.00  0.00     0.205 C 
ATOM     13  O   UNL     1      16.392   5.811  22.998  1.00  0.00    -0.206 OA
ATOM     14  N   UNL     1      17.842   7.915  22.841  1.00  0.00    -0.243 N 
ATOM     15  O   UNL     1      18.698   5.770  21.918  1.00  0.00    -0.206 OA
ATOM     16  N   UNL     1      18.018  10.033  23.801  1.00  0.00    -0.369 N 
ATOM     17  C   UNL     1      20.049   6.664  26.272  1.00  0.00     0.044 C 
ATOM     18  C   UNL     1      17.077   8.470  21.707  1.00  0.00     0.167 C 
ATOM     19  H   UNL     1      18.348  10.671  24.474  1.00  0.00     0.159 HD
ATOM     20  H   UNL     1      17.421  10.341  23.081  1.00  0.00     0.159 HD
ENDBRANCH   1   8
BRANCH   3  21
ATOM     21  N   UNL     1      23.005   8.753  21.823  1.00  0.00    -0.321 N 
ATOM     22  C   UNL     1      24.197   8.920  21.139  1.00  0.00     0.274 C 
ATOM     23  O   UNL     1      25.087   8.083  21.061  1.00  0.00    -0.267 OA
ATOM     24  H   UNL     1      22.436   9.553  21.895  1.00  0.00     0.170 HD
BRANCH  22  25
ATOM     25  C   UNL     1      24.346  10.216  20.433  1.00  0.00     0.128 A 
ATOM     26  N   UNL     1      25.448  10.919  20.712  1.00  0.00    -0.248 NA
ATOM     27  C   UNL     1      23.377  10.629  19.536  1.00  0.00     0.037 A 
ATOM     28  C   UNL     1      25.603  12.098  20.087  1.00  0.00     0.151 A 
ATOM     29  C   UNL     1      23.568  11.845  18.904  1.00  0.00     0.043 A 
ATOM     30  C   UNL     1      24.693  12.597  19.183  1.00  0.00     0.141 A 
ATOM     31  F   UNL     1      24.925  13.779  18.588  1.00  0.00    -0.205 F 
ENDBRANCH  22  25
ENDBRANCH   3  21
TORSDOF 3
ENDMDL
MODEL 16
REMARK VINA RESULT:    -8.118      9.883     12.006
REMARK INTER + INTRA:          -9.167
REMARK INTER:                  -8.818
REMARK INTRA:                  -0.348
REMARK UNBOUND:                 0.375
REMARK SMILES CN1C(N)=N[C@](C)(c2cc(NC(=O)c3ccc(F)cn3)ccc2F)CS1(=O)=O
REMARK SMILES IDX 8 1 9 2 10 3 21 4 22 5 23 6 24 7 6 8 25 9 5 10 26 11 3 12
REMARK SMILES IDX 27 13 2 14 28 15 4 16 7 17 1 18 11 21 12 22 13 23 14 25
REMARK SMILES IDX 20 26 15 27 19 28 16 29 17 30 18 31
REMARK H PARENT 4 19 4 20 11 24
ROOT
ATOM      1  C   UNL     1      25.642  13.205  19.924  1.00  0.00     0.018 A 
ATOM      2  C   UNL     1      24.882  12.332  20.700  1.00  0.00     0.035 A 
ATOM      3  C   UNL     1      23.802  11.645  20.193  1.00  0.00     0.042 A 
ATOM      4  C   UNL     1      23.416  11.820  18.870  1.00  0.00     0.029 A 
ATOM      5  C   UNL     1      24.161  12.680  18.083  1.00  0.00     0.042 A 
ATOM      6  C   UNL     1      25.261  13.339  18.597  1.00  0.00     0.129 A 
ATOM      7  F   UNL     1      25.993  14.155  17.796  1.00  0.00    -0.207 F 
ENDROOT
BRANCH   1   8
ATOM      8  C   UNL     1      26.831  13.948  20.513  1.00  0.00     0.105 C 
ATOM      9  C   UNL     1      28.163  13.644  19.863  1.00  0.00     0.195 C 
ATOM     10  N   UNL     1      26.927  13.770  21.961  1.00  0.00    -0.240 NA
ATOM     11  S   UNL     1      28.600  11.939  20.098  1.00  0.00     0.239 S 
ATOM     12  C   UNL     1      27.465  12.711  22.483  1.00  0.00     0.205 C 
ATOM     13  O   UNL     1      30.050  11.877  20.074  1.00  0.00    -0.206 OA
ATOM     14  N   UNL     1      28.106  11.703  21.730  1.00  0.00    -0.243 N 
ATOM     15  O   UNL     1      27.746  11.069  19.352  1.00  0.00    -0.206 OA
ATOM     16  N   UNL     1      27.482  12.490  23.834  1.00  0.00    -0.369 N 
ATOM     17  C   UNL     1      26.595  15.454  20.368  1.00  0.00     0.044 C 
ATOM     18  C   UNL     1      28.604  10.447  22.325  1.00  0.00     0.167 C 
ATOM     19  H   UNL     1      27.060  13.138  24.444  1.00  0.00     0.159 HD
ATOM     20  H   UNL     1      27.916  11.684  24.196  1.00  0.00     0.159 HD
ENDBRANCH   1   8
BRANCH   3  21
ATOM     21  N   UNL     1      23.122  10.801  21.080  1.00  0.00    -0.321 N 
ATOM     22  C   UNL     1      23.474   9.529  21.494  1.00  0.00     0.274 C 
ATOM     23  O   UNL     1      24.400   8.871  21.037  1.00  0.00    -0.267 OA
ATOM     24  H   UNL     1      22.286  11.160  21.457  1.00  0.00     0.170 HD
BRANCH  22  25
ATOM     25  C   UNL     1      22.660   8.976  22.603  1.00  0.00     0.128 A 
ATOM     26  N   UNL     1      22.327   9.829  23.577  1.00  0.00    -0.248 NA
ATOM     27  C   UNL     1      22.280   7.645  22.584  1.00  0.00     0.037 A 
ATOM     28  C   UNL     1      21.593   9.350  24.594  1.00  0.00     0.151 A 
ATOM     29  C   UNL     1      21.520   7.182  23.643  1.00  0.00     0.043 A 
ATOM     30  C   UNL     1      21.172   8.041  24.668  1.00  0.00     0.141 A 
ATOM     31  F   UNL     1      20.427   7.639  25.712  1.00  0.00    -0.205 F 
ENDBRANCH  22  25
ENDBRANCH   3  21
TORSDOF 3
ENDMDL
MODEL 17
REMARK VINA RESULT:    -8.117      9.722     11.995
REMARK INTER + INTRA:          -9.166
REMARK INTER:                  -9.624
REMARK INTRA:                   0.458
REMARK UNBOUND:                 0.375
REMARK SMILES CN1C(N)=N[C@](C)(c2cc(NC(=O)c3ccc(F)cn3)ccc2F)CS1(=O)=O
REMARK SMILES IDX 8 1 9 2 10 3 21 4 22 5 23 6 24 7 6 8 25 9 5 10 26 11 3 12
REMARK SMILES IDX 27 13 2 14 28 15 4 16 7 17 1 18 11 21 12 22 13 23 14 25
REMARK SMILES IDX 20 26 15 27 19 28 16 29 17 30 18 31
REMARK H PARENT 4 19 4 20 11 24
ROOT
ATOM      1  C   UNL     1      21.261  12.389  26.419  1.00  0.00     0.018 A 
ATOM      2  C   UNL     1      21.606  12.161  25.088  1.00  0.00     0.035 A 
ATOM      3  C   UNL     1      22.769  12.648  24.535  1.00  0.00     0.042 A 
ATOM      4  C   UNL     1      23.642  13.415  25.296  1.00  0.00     0.029 A 
ATOM      5  C   UNL     1      23.318  13.648  26.620  1.00  0.00     0.042 A 
ATOM      6  C   UNL     1      22.163  13.126  27.170  1.00  0.00     0.129 A 
ATOM      7  F   UNL     1      21.883  13.345  28.481  1.00  0.00    -0.207 F 
ENDROOT
BRANCH   1   8
ATOM      8  C   UNL     1      19.970  11.835  27.002  1.00  0.00     0.105 C 
ATOM      9  C   UNL     1      18.846  11.650  26.007  1.00  0.00     0.195 C 
ATOM     10  N   UNL     1      19.505  12.617  28.146  1.00  0.00    -0.240 NA
ATOM     11  S   UNL     1      18.342  13.212  25.332  1.00  0.00     0.239 S 
ATOM     12  C   UNL     1      18.837  13.719  27.992  1.00  0.00     0.205 C 
ATOM     13  O   UNL     1      16.945  13.072  24.961  1.00  0.00    -0.206 OA
ATOM     14  N   UNL     1      18.398  14.203  26.739  1.00  0.00    -0.243 N 
ATOM     15  O   UNL     1      19.347  13.769  24.482  1.00  0.00    -0.206 OA
ATOM     16  N   UNL     1      18.472  14.506  29.051  1.00  0.00    -0.369 N 
ATOM     17  C   UNL     1      20.255  10.462  27.618  1.00  0.00     0.044 C 
ATOM     18  C   UNL     1      17.749  15.518  26.567  1.00  0.00     0.167 C 
ATOM     19  H   UNL     1      18.731  14.252  29.965  1.00  0.00     0.159 HD
ATOM     20  H   UNL     1      17.949  15.326  28.897  1.00  0.00     0.159 HD
ENDBRANCH   1   8
BRANCH   3  21
ATOM     21  N   UNL     1      22.995  12.349  23.185  1.00  0.00    -0.321 N 
ATOM     22  C   UNL     1      23.354  13.212  22.165  1.00  0.00     0.274 C 
ATOM     23  O   UNL     1      23.410  14.432  22.261  1.00  0.00    -0.267 OA
ATOM     24  H   UNL     1      22.884  11.405  22.929  1.00  0.00     0.170 HD
BRANCH  22  25
ATOM     25  C   UNL     1      23.727  12.561  20.886  1.00  0.00     0.128 A 
ATOM     26  N   UNL     1      24.341  13.333  19.983  1.00  0.00    -0.248 NA
ATOM     27  C   UNL     1      23.444  11.221  20.685  1.00  0.00     0.037 A 
ATOM     28  C   UNL     1      24.684  12.766  18.815  1.00  0.00     0.151 A 
ATOM     29  C   UNL     1      23.815  10.664  19.474  1.00  0.00     0.043 A 
ATOM     30  C   UNL     1      24.439  11.444  18.520  1.00  0.00     0.141 A 
ATOM     31  F   UNL     1      24.826  10.945  17.334  1.00  0.00    -0.205 F 
ENDBRANCH  22  25
ENDBRANCH   3  21
TORSDOF 3
ENDMDL
MODEL 18
REMARK VINA RESULT:    -7.998      4.836      6.544
REMARK INTER + INTRA:          -9.025
REMARK INTER:                  -9.222
REMARK INTRA:                   0.197
REMARK UNBOUND:                 0.375
REMARK SMILES CN1C(N)=N[C@](C)(c2cc(NC(=O)c3ccc(F)cn3)ccc2F)CS1(=O)=O
REMARK SMILES IDX 8 1 9 2 10 3 21 4 22 5 23 6 24 7 6 8 25 9 5 10 26 11 3 12
REMARK SMILES IDX 27 13 2 14 28 15 4 16 7 17 1 18 11 21 12 22 13 23 14 25
REMARK SMILES IDX 20 26 15 27 19 28 16 29 17 30 18 31
REMARK H PARENT 4 19 4 20 11 24
ROOT
ATOM      1  C   UNL     1      19.588   5.985  23.287  1.00  0.00     0.018 A 
ATOM      2  C   UNL     1      20.704   5.605  22.542  1.00  0.00     0.035 A 
ATOM      3  C   UNL     1      21.648   4.728  23.026  1.00  0.00     0.042 A 
ATOM      4  C   UNL     1      21.528   4.201  24.306  1.00  0.00     0.029 A 
ATOM      5  C   UNL     1      20.425   4.564  25.058  1.00  0.00     0.042 A 
ATOM      6  C   UNL     1      19.469   5.420  24.547  1.00  0.00     0.129 A 
ATOM      7  F   UNL     1      18.381   5.737  25.295  1.00  0.00    -0.207 F 
ENDROOT
BRANCH   1   8
ATOM      8  C   UNL     1      18.560   6.953  22.723  1.00  0.00     0.105 C 
ATOM      9  C   UNL     1      17.126   6.655  23.098  1.00  0.00     0.195 C 
ATOM     10  N   UNL     1      18.680   7.098  21.273  1.00  0.00    -0.240 NA
ATOM     11  S   UNL     1      16.613   5.094  22.427  1.00  0.00     0.239 S 
ATOM     12  C   UNL     1      18.158   6.236  20.456  1.00  0.00     0.205 C 
ATOM     13  O   UNL     1      15.177   5.176  22.237  1.00  0.00    -0.206 OA
ATOM     14  N   UNL     1      17.339   5.161  20.867  1.00  0.00    -0.243 N 
ATOM     15  O   UNL     1      17.278   4.001  23.066  1.00  0.00    -0.206 OA
ATOM     16  N   UNL     1      18.338   6.311  19.101  1.00  0.00    -0.369 N 
ATOM     17  C   UNL     1      18.875   8.361  23.235  1.00  0.00     0.044 C 
ATOM     18  C   UNL     1      16.855   4.118  19.940  1.00  0.00     0.167 C 
ATOM     19  H   UNL     1      18.894   7.028  18.718  1.00  0.00     0.159 HD
ATOM     20  H   UNL     1      17.911   5.650  18.510  1.00  0.00     0.159 HD
ENDBRANCH   1   8
BRANCH   3  21
ATOM     21  N   UNL     1      22.723   4.432  22.177  1.00  0.00    -0.321 N 
ATOM     22  C   UNL     1      24.052   4.240  22.512  1.00  0.00     0.274 C 
ATOM     23  O   UNL     1      24.533   4.429  23.621  1.00  0.00    -0.267 OA
ATOM     24  H   UNL     1      22.504   4.350  21.221  1.00  0.00     0.170 HD
BRANCH  22  25
ATOM     25  C   UNL     1      24.913   3.730  21.417  1.00  0.00     0.128 A 
ATOM     26  N   UNL     1      25.907   2.912  21.777  1.00  0.00    -0.248 NA
ATOM     27  C   UNL     1      24.657   4.099  20.108  1.00  0.00     0.037 A 
ATOM     28  C   UNL     1      26.704   2.442  20.803  1.00  0.00     0.151 A 
ATOM     29  C   UNL     1      25.491   3.593  19.126  1.00  0.00     0.043 A 
ATOM     30  C   UNL     1      26.533   2.756  19.474  1.00  0.00     0.141 A 
ATOM     31  F   UNL     1      27.363   2.233  18.555  1.00  0.00    -0.205 F 
ENDBRANCH  22  25
ENDBRANCH   3  21
TORSDOF 3
ENDMDL
MODEL 19
REMARK VINA RESULT:    -7.991      9.773     11.944
REMARK INTER + INTRA:          -9.017
REMARK INTER:                  -9.291
REMARK INTRA:                   0.274
REMARK UNBOUND:                 0.375
REMARK SMILES CN1C(N)=N[C@](C)(c2cc(NC(=O)c3ccc(F)cn3)ccc2F)CS1(=O)=O
REMARK SMILES IDX 8 1 9 2 10 3 21 4 22 5 23 6 24 7 6 8 25 9 5 10 26 11 3 12
REMARK SMILES IDX 27 13 2 14 28 15 4 16 7 17 1 18 11 21 12 22 13 23 14 25
REMARK SMILES IDX 20 26 15 27 19 28 16 29 17 30 18 31
REMARK H PARENT 4 19 4 20 11 24
ROOT
ATOM      1  C   UNL     1      26.024  12.001  20.291  1.00  0.00     0.018 A 
ATOM      2  C   UNL     1      25.341  11.037  21.031  1.00  0.00     0.035 A 
ATOM      3  C   UNL     1      24.046  10.669  20.744  1.00  0.00     0.042 A 
ATOM      4  C   UNL     1      23.358  11.275  19.700  1.00  0.00     0.029 A 
ATOM      5  C   UNL     1      24.022  12.231  18.952  1.00  0.00     0.042 A 
ATOM      6  C   UNL     1      25.332  12.567  19.232  1.00  0.00     0.129 A 
ATOM      7  F   UNL     1      25.970  13.488  18.465  1.00  0.00    -0.207 F 
ENDROOT
BRANCH   1   8
ATOM      8  C   UNL     1      27.456  12.383  20.632  1.00  0.00     0.105 C 
ATOM      9  C   UNL     1      27.865  12.124  22.065  1.00  0.00     0.195 C 
ATOM     10  N   UNL     1      27.756  13.767  20.267  1.00  0.00    -0.240 NA
ATOM     11  S   UNL     1      26.909  13.120  23.180  1.00  0.00     0.239 S 
ATOM     12  C   UNL     1      27.422  14.761  21.031  1.00  0.00     0.205 C 
ATOM     13  O   UNL     1      27.734  13.334  24.355  1.00  0.00    -0.206 OA
ATOM     14  N   UNL     1      26.856  14.609  22.316  1.00  0.00    -0.243 N 
ATOM     15  O   UNL     1      25.543  12.701  23.223  1.00  0.00    -0.206 OA
ATOM     16  N   UNL     1      27.617  16.065  20.661  1.00  0.00    -0.369 N 
ATOM     17  C   UNL     1      28.408  11.580  19.741  1.00  0.00     0.044 C 
ATOM     18  C   UNL     1      26.367  15.746  23.121  1.00  0.00     0.167 C 
ATOM     19  H   UNL     1      28.007  16.273  19.782  1.00  0.00     0.159 HD
ATOM     20  H   UNL     1      27.368  16.793  21.275  1.00  0.00     0.159 HD
ENDBRANCH   1   8
BRANCH   3  21
ATOM     21  N   UNL     1      23.474   9.690  21.567  1.00  0.00    -0.321 N 
ATOM     22  C   UNL     1      22.766   9.866  22.742  1.00  0.00     0.274 C 
ATOM     23  O   UNL     1      22.634  10.930  23.333  1.00  0.00    -0.267 OA
ATOM     24  H   UNL     1      23.591   8.759  21.271  1.00  0.00     0.170 HD
BRANCH  22  25
ATOM     25  C   UNL     1      22.106   8.648  23.272  1.00  0.00     0.128 A 
ATOM     26  N   UNL     1      21.406   8.797  24.402  1.00  0.00    -0.248 NA
ATOM     27  C   UNL     1      22.224   7.447  22.594  1.00  0.00     0.037 A 
ATOM     28  C   UNL     1      20.803   7.706  24.903  1.00  0.00     0.151 A 
ATOM     29  C   UNL     1      21.586   6.344  23.131  1.00  0.00     0.043 A 
ATOM     30  C   UNL     1      20.868   6.468  24.305  1.00  0.00     0.141 A 
ATOM     31  F   UNL     1      20.224   5.427  24.859  1.00  0.00    -0.205 F 
ENDBRANCH  22  25
ENDBRANCH   3  21
TORSDOF 3
ENDMDL
MODEL 20
REMARK VINA RESULT:    -7.990     10.506     12.484
REMARK INTER + INTRA:          -9.017
REMARK INTER:                  -8.588
REMARK INTRA:                  -0.428
REMARK UNBOUND:                 0.375
REMARK SMILES CN1C(N)=N[C@](C)(c2cc(NC(=O)c3ccc(F)cn3)ccc2F)CS1(=O)=O
REMARK SMILES IDX 8 1 9 2 10 3 21 4 22 5 23 6 24 7 6 8 25 9 5 10 26 11 3 12
REMARK SMILES IDX 27 13 2 14 28 15 4 16 7 17 1 18 11 21 12 22 13 23 14 25
REMARK SMILES IDX 20 26 15 27 19 28 16 29 17 30 18 31
REMARK H PARENT 4 19 4 20 11 24
ROOT
ATOM      1  C   UNL     1      27.270  12.799  21.508  1.00  0.00     0.018 A 
ATOM      2  C   UNL     1      26.036  12.528  22.096  1.00  0.00     0.035 A 
ATOM      3  C   UNL     1      25.648  13.095  23.288  1.00  0.00     0.042 A 
ATOM      4  C   UNL     1      26.501  13.955  23.969  1.00  0.00     0.029 A 
ATOM      5  C   UNL     1      27.729  14.238  23.398  1.00  0.00     0.042 A 
ATOM      6  C   UNL     1      28.092  13.687  22.185  1.00  0.00     0.129 A 
ATOM      7  F   UNL     1      29.291  14.003  21.633  1.00  0.00    -0.207 F 
ENDROOT
BRANCH   1   8
ATOM      8  C   UNL     1      27.669  12.158  20.187  1.00  0.00     0.105 C 
ATOM      9  C   UNL     1      28.002  13.131  19.078  1.00  0.00     0.195 C 
ATOM     10  N   UNL     1      26.675  11.191  19.725  1.00  0.00    -0.240 NA
ATOM     11  S   UNL     1      26.577  14.095  18.641  1.00  0.00     0.239 S 
ATOM     12  C   UNL     1      25.602  11.563  19.098  1.00  0.00     0.205 C 
ATOM     13  O   UNL     1      26.743  14.472  17.249  1.00  0.00    -0.206 OA
ATOM     14  N   UNL     1      25.346  12.894  18.701  1.00  0.00    -0.243 N 
ATOM     15  O   UNL     1      26.217  15.007  19.682  1.00  0.00    -0.206 OA
ATOM     16  N   UNL     1      24.622  10.677  18.737  1.00  0.00    -0.369 N 
ATOM     17  C   UNL     1      28.912  11.292  20.413  1.00  0.00     0.044 C 
ATOM     18  C   UNL     1      24.067  13.323  18.100  1.00  0.00     0.167 C 
ATOM     19  H   UNL     1      24.711   9.725  18.970  1.00  0.00     0.159 HD
ATOM     20  H   UNL     1      23.829  10.993  18.246  1.00  0.00     0.159 HD
ENDBRANCH   1   8
BRANCH   3  21
ATOM     21  N   UNL     1      24.382  12.737  23.771  1.00  0.00    -0.321 N 
ATOM     22  C   UNL     1      23.147  13.226  23.383  1.00  0.00     0.274 C 
ATOM     23  O   UNL     1      22.970  14.168  22.622  1.00  0.00    -0.267 OA
ATOM     24  H   UNL     1      24.370  12.050  24.476  1.00  0.00     0.170 HD
BRANCH  22  25
ATOM     25  C   UNL     1      21.977  12.496  23.930  1.00  0.00     0.128 A 
ATOM     26  N   UNL     1      20.909  13.238  24.241  1.00  0.00    -0.248 NA
ATOM     27  C   UNL     1      22.030  11.122  24.084  1.00  0.00     0.037 A 
ATOM     28  C   UNL     1      19.839  12.599  24.742  1.00  0.00     0.151 A 
ATOM     29  C   UNL     1      20.910  10.492  24.597  1.00  0.00     0.043 A 
ATOM     30  C   UNL     1      19.797  11.237  24.937  1.00  0.00     0.141 A 
ATOM     31  F   UNL     1      18.684  10.669  25.430  1.00  0.00    -0.205 F 
ENDBRANCH  22  25
ENDBRANCH   3  21
TORSDOF 3
ENDMDL
