MODEL 1
REMARK VINA RESULT:     0.223      0.000      0.000
REMARK INTER + INTRA:           0.682
REMARK INTER:                   0.314
REMARK INTRA:                   0.368
REMARK UNBOUND:                 0.368
REMARK SMILES Cc1ccc(NC(=O)c2ccc(CN3CCN(C)CC3)cc2)cc1Nc1nc(-c2cccnc2)cs1
REMARK SMILES IDX 6 1 7 2 8 3 5 5 2 6 3 7 24 8 4 9 23 10 1 11 25 12 26 14
REMARK SMILES IDX 27 15 36 16 28 17 35 18 29 19 30 20 34 21 31 22 33 23 32 24
REMARK SMILES IDX 9 25 10 26 22 27 11 28 21 29 12 30 13 31 14 32 15 33 20 34
REMARK SMILES IDX 16 35 19 36 17 37 18 38
REMARK H PARENT 6 4 25 13
ROOT
ATOM      1  N   UNL     1      31.111  27.603  45.856  1.00  0.00    -0.322 N 
ATOM      2  C   UNL     1      31.023  28.880  46.381  1.00  0.00     0.255 C 
ATOM      3  O   UNL     1      30.433  29.219  47.399  1.00  0.00    -0.269 OA
ATOM      4  H   UNL     1      31.759  27.471  45.091  1.00  0.00     0.170 HD
ENDROOT
BRANCH   1   5
ATOM      5  C   UNL     1      30.495  26.432  46.347  1.00  0.00     0.043 A 
ATOM      6  C   UNL     1      29.376  24.096  47.471  1.00  0.00    -0.027 A 
ATOM      7  C   UNL     1      30.562  24.637  47.982  1.00  0.00     0.008 A 
ATOM      8  C   UNL     1      28.762  24.714  46.366  1.00  0.00     0.045 A 
ATOM      9  C   UNL     1      31.114  25.794  47.427  1.00  0.00     0.026 A 
ATOM     10  C   UNL     1      29.328  25.880  45.818  1.00  0.00     0.052 A 
ATOM     11  C   UNL     1      28.808  22.851  48.095  1.00  0.00     0.046 C 
BRANCH   8  12
ATOM     12  N   UNL     1      27.587  24.172  45.792  1.00  0.00    -0.331 N 
ATOM     13  H   UNL     1      27.070  23.628  46.478  1.00  0.00     0.169 HD
BRANCH  12  14
ATOM     14  C   UNL     1      26.735  24.893  45.014  1.00  0.00     0.187 A 
ATOM     15  N   UNL     1      26.622  24.655  43.725  1.00  0.00    -0.220 NA
ATOM     16  S   UNL     1      25.738  26.188  45.577  1.00  0.00    -0.105 S 
ATOM     17  C   UNL     1      25.718  25.519  43.123  1.00  0.00     0.085 A 
ATOM     18  C   UNL     1      25.133  26.418  43.991  1.00  0.00     0.097 A 
BRANCH  17  19
ATOM     19  C   UNL     1      25.452  25.439  41.690  1.00  0.00     0.019 A 
ATOM     20  C   UNL     1      24.899  24.314  41.070  1.00  0.00     0.013 A 
ATOM     21  C   UNL     1      25.743  26.526  40.866  1.00  0.00     0.121 A 
ATOM     22  C   UNL     1      24.664  24.319  39.693  1.00  0.00     0.021 A 
ATOM     23  N   UNL     1      25.528  26.560  39.525  1.00  0.00    -0.264 NA
ATOM     24  C   UNL     1      24.992  25.454  38.971  1.00  0.00     0.111 A 
ENDBRANCH  17  19
ENDBRANCH  12  14
ENDBRANCH   8  12
ENDBRANCH   1   5
BRANCH   2  25
ATOM     25  C   UNL     1      31.784  29.913  45.623  1.00  0.00     0.040 A 
ATOM     26  C   UNL     1      33.156  30.038  45.857  1.00  0.00     0.014 A 
ATOM     27  C   UNL     1      31.154  30.761  44.703  1.00  0.00     0.014 A 
ATOM     28  C   UNL     1      33.902  30.983  45.150  1.00  0.00     0.006 A 
ATOM     29  C   UNL     1      31.903  31.709  44.000  1.00  0.00     0.006 A 
ATOM     30  C   UNL     1      33.286  31.821  44.207  1.00  0.00    -0.034 A 
BRANCH  30  31
ATOM     31  C   UNL     1      34.097  32.859  43.453  1.00  0.00     0.120 C 
BRANCH  31  32
ATOM     32  N   UNL     1      33.785  34.238  43.872  1.00  0.00    -0.297 NA
ATOM     33  C   UNL     1      34.969  34.873  44.479  1.00  0.00     0.100 C 
ATOM     34  C   UNL     1      32.660  34.274  44.839  1.00  0.00     0.100 C 
ATOM     35  C   UNL     1      35.407  34.301  45.856  1.00  0.00     0.099 C 
ATOM     36  C   UNL     1      33.043  34.338  46.343  1.00  0.00     0.099 C 
ATOM     37  N   UNL     1      34.318  33.666  46.623  1.00  0.00    -0.304 NA
ATOM     38  C   UNL     1      34.618  33.642  48.050  1.00  0.00     0.105 C 
ENDBRANCH  31  32
ENDBRANCH  30  31
ENDBRANCH   2  25
TORSDOF 7
ENDMDL
MODEL 2
REMARK VINA RESULT:     1.075      2.810     10.115
REMARK INTER + INTRA:           1.883
REMARK INTER:                   2.705
REMARK INTRA:                  -0.822
REMARK UNBOUND:                 0.368
REMARK SMILES Cc1ccc(NC(=O)c2ccc(CN3CCN(C)CC3)cc2)cc1Nc1nc(-c2cccnc2)cs1
REMARK SMILES IDX 6 1 7 2 8 3 5 5 2 6 3 7 24 8 4 9 23 10 1 11 25 12 26 14
REMARK SMILES IDX 27 15 36 16 28 17 35 18 29 19 30 20 34 21 31 22 33 23 32 24
REMARK SMILES IDX 9 25 10 26 22 27 11 28 21 29 12 30 13 31 14 32 15 33 20 34
REMARK SMILES IDX 16 35 19 36 17 37 18 38
REMARK H PARENT 6 4 25 13
ROOT
ATOM      1  N   UNL     1      27.523  24.785  44.400  1.00  0.00    -0.322 N 
ATOM      2  C   UNL     1      26.301  25.434  44.418  1.00  0.00     0.255 C 
ATOM      3  O   UNL     1      25.789  26.013  45.368  1.00  0.00    -0.269 OA
ATOM      4  H   UNL     1      27.865  24.487  43.496  1.00  0.00     0.170 HD
ENDROOT
BRANCH   1   5
ATOM      5  C   UNL     1      28.411  24.603  45.481  1.00  0.00     0.043 A 
ATOM      6  C   UNL     1      30.164  24.058  47.628  1.00  0.00    -0.027 A 
ATOM      7  C   UNL     1      29.373  23.042  47.076  1.00  0.00     0.008 A 
ATOM      8  C   UNL     1      30.051  25.365  47.120  1.00  0.00     0.045 A 
ATOM      9  C   UNL     1      28.508  23.312  46.013  1.00  0.00     0.026 A 
ATOM     10  C   UNL     1      29.176  25.622  46.048  1.00  0.00     0.052 A 
ATOM     11  C   UNL     1      31.086  23.731  48.770  1.00  0.00     0.046 C 
BRANCH   8  12
ATOM     12  N   UNL     1      30.799  26.428  47.681  1.00  0.00    -0.331 N 
ATOM     13  H   UNL     1      31.721  26.108  47.965  1.00  0.00     0.169 HD
BRANCH  12  14
ATOM     14  C   UNL     1      30.875  27.665  47.120  1.00  0.00     0.187 A 
ATOM     15  N   UNL     1      31.566  27.873  46.019  1.00  0.00    -0.220 NA
ATOM     16  S   UNL     1      30.130  29.088  47.758  1.00  0.00    -0.105 S 
ATOM     17  C   UNL     1      31.529  29.206  45.637  1.00  0.00     0.085 A 
ATOM     18  C   UNL     1      30.780  30.012  46.470  1.00  0.00     0.097 A 
BRANCH  17  19
ATOM     19  C   UNL     1      32.243  29.660  44.448  1.00  0.00     0.019 A 
ATOM     20  C   UNL     1      32.048  30.915  43.862  1.00  0.00     0.013 A 
ATOM     21  C   UNL     1      33.185  28.828  43.842  1.00  0.00     0.121 A 
ATOM     22  C   UNL     1      32.779  31.280  42.729  1.00  0.00     0.021 A 
ATOM     23  N   UNL     1      33.910  29.154  42.740  1.00  0.00    -0.264 NA
ATOM     24  C   UNL     1      33.689  30.374  42.211  1.00  0.00     0.111 A 
ENDBRANCH  17  19
ENDBRANCH  12  14
ENDBRANCH   8  12
ENDBRANCH   1   5
BRANCH   2  25
ATOM     25  C   UNL     1      25.590  25.450  43.109  1.00  0.00     0.040 A 
ATOM     26  C   UNL     1      26.306  25.116  41.956  1.00  0.00     0.014 A 
ATOM     27  C   UNL     1      24.238  25.803  43.013  1.00  0.00     0.014 A 
ATOM     28  C   UNL     1      25.665  25.102  40.716  1.00  0.00     0.006 A 
ATOM     29  C   UNL     1      23.600  25.792  41.768  1.00  0.00     0.006 A 
ATOM     30  C   UNL     1      24.304  25.429  40.610  1.00  0.00    -0.034 A 
BRANCH  30  31
ATOM     31  C   UNL     1      23.615  25.430  39.257  1.00  0.00     0.120 C 
BRANCH  31  32
ATOM     32  N   UNL     1      24.525  25.795  38.156  1.00  0.00    -0.297 NA
ATOM     33  C   UNL     1      23.844  26.683  37.197  1.00  0.00     0.100 C 
ATOM     34  C   UNL     1      25.027  24.595  37.442  1.00  0.00     0.100 C 
ATOM     35  C   UNL     1      22.712  26.026  36.360  1.00  0.00     0.099 C 
ATOM     36  C   UNL     1      24.272  24.198  36.143  1.00  0.00     0.099 C 
ATOM     37  N   UNL     1      22.852  24.567  36.189  1.00  0.00    -0.304 NA
ATOM     38  C   UNL     1      22.131  24.099  35.010  1.00  0.00     0.105 C 
ENDBRANCH  31  32
ENDBRANCH  30  31
ENDBRANCH   2  25
TORSDOF 7
ENDMDL
MODEL 3
REMARK VINA RESULT:     2.232      1.280      2.196
REMARK INTER + INTRA:           3.514
REMARK INTER:                   2.135
REMARK INTRA:                   1.379
REMARK UNBOUND:                 0.368
REMARK SMILES Cc1ccc(NC(=O)c2ccc(CN3CCN(C)CC3)cc2)cc1Nc1nc(-c2cccnc2)cs1
REMARK SMILES IDX 6 1 7 2 8 3 5 5 2 6 3 7 24 8 4 9 23 10 1 11 25 12 26 14
REMARK SMILES IDX 27 15 36 16 28 17 35 18 29 19 30 20 34 21 31 22 33 23 32 24
REMARK SMILES IDX 9 25 10 26 22 27 11 28 21 29 12 30 13 31 14 32 15 33 20 34
REMARK SMILES IDX 16 35 19 36 17 37 18 38
REMARK H PARENT 6 4 25 13
ROOT
ATOM      1  N   UNL     1      31.233  27.254  46.258  1.00  0.00    -0.322 N 
ATOM      2  C   UNL     1      32.237  27.645  45.390  1.00  0.00     0.255 C 
ATOM      3  O   UNL     1      32.606  27.059  44.379  1.00  0.00    -0.269 OA
ATOM      4  H   UNL     1      30.956  27.925  46.961  1.00  0.00     0.170 HD
ENDROOT
BRANCH   1   5
ATOM      5  C   UNL     1      30.462  26.075  46.198  1.00  0.00     0.043 A 
ATOM      6  C   UNL     1      29.069  23.619  46.115  1.00  0.00    -0.027 A 
ATOM      7  C   UNL     1      30.469  23.645  46.155  1.00  0.00     0.008 A 
ATOM      8  C   UNL     1      28.363  24.836  46.084  1.00  0.00     0.045 A 
ATOM      9  C   UNL     1      31.156  24.860  46.198  1.00  0.00     0.026 A 
ATOM     10  C   UNL     1      29.069  26.052  46.130  1.00  0.00     0.052 A 
ATOM     11  C   UNL     1      28.360  22.293  46.071  1.00  0.00     0.046 C 
BRANCH   8  12
ATOM     12  N   UNL     1      26.950  24.851  45.997  1.00  0.00    -0.331 N 
ATOM     13  H   UNL     1      26.536  25.047  46.905  1.00  0.00     0.169 HD
BRANCH  12  14
ATOM     14  C   UNL     1      26.269  25.499  45.013  1.00  0.00     0.187 A 
ATOM     15  N   UNL     1      26.225  25.022  43.787  1.00  0.00    -0.220 NA
ATOM     16  S   UNL     1      25.422  26.992  45.214  1.00  0.00    -0.105 S 
ATOM     17  C   UNL     1      25.500  25.850  42.942  1.00  0.00     0.085 A 
ATOM     18  C   UNL     1      24.980  26.970  43.559  1.00  0.00     0.097 A 
BRANCH  17  19
ATOM     19  C   UNL     1      25.338  25.516  41.531  1.00  0.00     0.019 A 
ATOM     20  C   UNL     1      24.975  24.244  41.076  1.00  0.00     0.013 A 
ATOM     21  C   UNL     1      25.537  26.494  40.557  1.00  0.00     0.121 A 
ATOM     22  C   UNL     1      24.830  24.007  39.707  1.00  0.00     0.021 A 
ATOM     23  N   UNL     1      25.404  26.293  39.220  1.00  0.00    -0.264 NA
ATOM     24  C   UNL     1      25.052  25.052  38.828  1.00  0.00     0.111 A 
ENDBRANCH  17  19
ENDBRANCH  12  14
ENDBRANCH   8  12
ENDBRANCH   1   5
BRANCH   2  25
ATOM     25  C   UNL     1      32.877  28.947  45.730  1.00  0.00     0.040 A 
ATOM     26  C   UNL     1      32.084  29.957  46.283  1.00  0.00     0.014 A 
ATOM     27  C   UNL     1      34.237  29.180  45.494  1.00  0.00     0.014 A 
ATOM     28  C   UNL     1      32.655  31.182  46.630  1.00  0.00     0.006 A 
ATOM     29  C   UNL     1      34.806  30.410  45.840  1.00  0.00     0.006 A 
ATOM     30  C   UNL     1      34.023  31.418  46.423  1.00  0.00    -0.034 A 
BRANCH  30  31
ATOM     31  C   UNL     1      34.637  32.758  46.786  1.00  0.00     0.120 C 
BRANCH  31  32
ATOM     32  N   UNL     1      33.838  33.899  46.303  1.00  0.00    -0.297 NA
ATOM     33  C   UNL     1      32.741  33.430  45.436  1.00  0.00     0.100 C 
ATOM     34  C   UNL     1      34.671  34.872  45.556  1.00  0.00     0.100 C 
ATOM     35  C   UNL     1      33.173  32.846  44.063  1.00  0.00     0.099 C 
ATOM     36  C   UNL     1      34.667  34.740  44.008  1.00  0.00     0.099 C 
ATOM     37  N   UNL     1      34.467  33.354  43.567  1.00  0.00    -0.304 NA
ATOM     38  C   UNL     1      34.568  33.224  42.117  1.00  0.00     0.105 C 
ENDBRANCH  31  32
ENDBRANCH  30  31
ENDBRANCH   2  25
TORSDOF 7
ENDMDL
MODEL 4
REMARK VINA RESULT:     2.917      2.507     10.667
REMARK INTER + INTRA:           4.480
REMARK INTER:                   5.239
REMARK INTRA:                  -0.759
REMARK UNBOUND:                 0.368
REMARK SMILES Cc1ccc(NC(=O)c2ccc(CN3CCN(C)CC3)cc2)cc1Nc1nc(-c2cccnc2)cs1
REMARK SMILES IDX 6 1 7 2 8 3 5 5 2 6 3 7 24 8 4 9 23 10 1 11 25 12 26 14
REMARK SMILES IDX 27 15 36 16 28 17 35 18 29 19 30 20 34 21 31 22 33 23 32 24
REMARK SMILES IDX 9 25 10 26 22 27 11 28 21 29 12 30 13 31 14 32 15 33 20 34
REMARK SMILES IDX 16 35 19 36 17 37 18 38
REMARK H PARENT 6 4 25 13
ROOT
ATOM      1  N   UNL     1      27.346  24.945  44.278  1.00  0.00    -0.322 N 
ATOM      2  C   UNL     1      26.084  25.512  44.292  1.00  0.00     0.255 C 
ATOM      3  O   UNL     1      25.527  26.046  45.244  1.00  0.00    -0.269 OA
ATOM      4  H   UNL     1      27.713  24.680  43.374  1.00  0.00     0.170 HD
ENDROOT
BRANCH   1   5
ATOM      5  C   UNL     1      28.234  24.809  45.365  1.00  0.00     0.043 A 
ATOM      6  C   UNL     1      29.986  24.357  47.534  1.00  0.00    -0.027 A 
ATOM      7  C   UNL     1      29.171  23.327  47.048  1.00  0.00     0.008 A 
ATOM      8  C   UNL     1      29.899  25.633  46.947  1.00  0.00     0.045 A 
ATOM      9  C   UNL     1      28.306  23.552  45.974  1.00  0.00     0.026 A 
ATOM     10  C   UNL     1      29.025  25.844  45.865  1.00  0.00     0.052 A 
ATOM     11  C   UNL     1      30.907  24.081  48.690  1.00  0.00     0.046 C 
BRANCH   8  12
ATOM     12  N   UNL     1      30.673  26.711  47.440  1.00  0.00    -0.331 N 
ATOM     13  H   UNL     1      31.153  26.448  48.297  1.00  0.00     0.169 HD
BRANCH  12  14
ATOM     14  C   UNL     1      31.485  27.469  46.653  1.00  0.00     0.187 A 
ATOM     15  N   UNL     1      31.607  28.765  46.847  1.00  0.00    -0.220 NA
ATOM     16  S   UNL     1      32.415  26.870  45.325  1.00  0.00    -0.105 S 
ATOM     17  C   UNL     1      32.462  29.342  45.920  1.00  0.00     0.085 A 
ATOM     18  C   UNL     1      33.003  28.449  45.018  1.00  0.00     0.097 A 
BRANCH  17  19
ATOM     19  C   UNL     1      32.728  30.777  45.944  1.00  0.00     0.019 A 
ATOM     20  C   UNL     1      33.972  31.326  46.275  1.00  0.00     0.013 A 
ATOM     21  C   UNL     1      31.715  31.678  45.617  1.00  0.00     0.121 A 
ATOM     22  C   UNL     1      34.149  32.712  46.265  1.00  0.00     0.021 A 
ATOM     23  N   UNL     1      31.858  33.029  45.599  1.00  0.00    -0.264 NA
ATOM     24  C   UNL     1      33.073  33.513  45.924  1.00  0.00     0.111 A 
ENDBRANCH  17  19
ENDBRANCH  12  14
ENDBRANCH   8  12
ENDBRANCH   1   5
BRANCH   2  25
ATOM     25  C   UNL     1      25.384  25.496  42.977  1.00  0.00     0.040 A 
ATOM     26  C   UNL     1      26.112  25.147  41.836  1.00  0.00     0.014 A 
ATOM     27  C   UNL     1      24.029  25.833  42.862  1.00  0.00     0.014 A 
ATOM     28  C   UNL     1      25.482  25.102  40.591  1.00  0.00     0.006 A 
ATOM     29  C   UNL     1      23.402  25.792  41.613  1.00  0.00     0.006 A 
ATOM     30  C   UNL     1      24.119  25.414  40.468  1.00  0.00    -0.034 A 
BRANCH  30  31
ATOM     31  C   UNL     1      23.442  25.382  39.110  1.00  0.00     0.120 C 
BRANCH  31  32
ATOM     32  N   UNL     1      24.336  25.811  38.019  1.00  0.00    -0.297 NA
ATOM     33  C   UNL     1      23.599  26.634  37.042  1.00  0.00     0.100 C 
ATOM     34  C   UNL     1      24.943  24.651  37.323  1.00  0.00     0.100 C 
ATOM     35  C   UNL     1      22.537  25.881  36.195  1.00  0.00     0.099 C 
ATOM     36  C   UNL     1      24.243  24.184  36.017  1.00  0.00     0.099 C 
ATOM     37  N   UNL     1      22.797  24.437  36.038  1.00  0.00    -0.304 NA
ATOM     38  C   UNL     1      22.134  23.903  34.854  1.00  0.00     0.105 C 
ENDBRANCH  31  32
ENDBRANCH  30  31
ENDBRANCH   2  25
TORSDOF 7
ENDMDL
