MODEL 1
REMARK VINA RESULT:    -9.531      0.000      0.000
REMARK INTER + INTRA:         -11.513
REMARK INTER:                 -11.203
REMARK INTRA:                  -0.310
REMARK UNBOUND:                -0.310
REMARK SMILES CN1C(N)=N[C@](C)(c2cc(NC(=O)c3ccc(F)cn3)ccc2F)CS1(=O)=O
REMARK SMILES IDX 8 1 9 2 10 3 21 4 22 5 23 6 24 7 6 8 25 9 5 10 26 11 3 12
REMARK SMILES IDX 27 13 2 14 28 15 4 16 7 17 1 18 11 21 12 22 13 23 14 25
REMARK SMILES IDX 20 26 15 27 19 28 16 29 17 30 18 31
REMARK H PARENT 4 19 4 20 11 24
ROOT
ATOM      1  C   UNL     1      22.889  10.487  20.550  1.00  0.00     0.018 A 
ATOM      2  C   UNL     1      24.172  10.112  20.946  1.00  0.00     0.035 A 
ATOM      3  C   UNL     1      25.294  10.461  20.231  1.00  0.00     0.042 A 
ATOM      4  C   UNL     1      25.181  11.195  19.056  1.00  0.00     0.029 A 
ATOM      5  C   UNL     1      23.915  11.579  18.650  1.00  0.00     0.042 A 
ATOM      6  C   UNL     1      22.800  11.249  19.395  1.00  0.00     0.129 A 
ATOM      7  F   UNL     1      21.572  11.663  18.989  1.00  0.00    -0.207 F 
ENDROOT
BRANCH   1   8
ATOM      8  C   UNL     1      21.667  10.089  21.364  1.00  0.00     0.105 C 
ATOM      9  C   UNL     1      20.789  11.238  21.806  1.00  0.00     0.195 C 
ATOM     10  N   UNL     1      22.022   9.257  22.513  1.00  0.00    -0.240 NA
ATOM     11  S   UNL     1      21.671  12.313  22.909  1.00  0.00     0.239 S 
ATOM     12  C   UNL     1      22.458   9.773  23.620  1.00  0.00     0.205 C 
ATOM     13  O   UNL     1      20.676  12.933  23.766  1.00  0.00    -0.206 OA
ATOM     14  N   UNL     1      22.522  11.163  23.867  1.00  0.00    -0.243 N 
ATOM     15  O   UNL     1      22.707  13.028  22.233  1.00  0.00    -0.206 OA
ATOM     16  N   UNL     1      22.876   9.002  24.671  1.00  0.00    -0.369 N 
ATOM     17  C   UNL     1      20.795   9.155  20.520  1.00  0.00     0.044 C 
ATOM     18  C   UNL     1      23.135  11.737  25.081  1.00  0.00     0.167 C 
ATOM     19  H   UNL     1      22.868   8.021  24.595  1.00  0.00     0.159 HD
ATOM     20  H   UNL     1      23.184   9.429  25.503  1.00  0.00     0.159 HD
ENDBRANCH   1   8
BRANCH   3  21
ATOM     21  N   UNL     1      26.524  10.018  20.736  1.00  0.00    -0.321 N 
ATOM     22  C   UNL     1      27.648  10.767  21.034  1.00  0.00     0.274 C 
ATOM     23  O   UNL     1      27.792  11.955  20.774  1.00  0.00    -0.267 OA
ATOM     24  H   UNL     1      26.596   9.050  20.901  1.00  0.00     0.170 HD
BRANCH  22  25
ATOM     25  C   UNL     1      28.721  10.040  21.754  1.00  0.00     0.128 A 
ATOM     26  N   UNL     1      29.724  10.784  22.232  1.00  0.00    -0.248 NA
ATOM     27  C   UNL     1      28.642   8.667  21.908  1.00  0.00     0.037 A 
ATOM     28  C   UNL     1      30.710  10.146  22.885  1.00  0.00     0.151 A 
ATOM     29  C   UNL     1      29.670   8.039  22.589  1.00  0.00     0.043 A 
ATOM     30  C   UNL     1      30.723   8.784  23.083  1.00  0.00     0.141 A 
ATOM     31  F   UNL     1      31.739   8.220  23.759  1.00  0.00    -0.205 F 
ENDBRANCH  22  25
ENDBRANCH   3  21
TORSDOF 3
ENDMDL
MODEL 2
REMARK VINA RESULT:    -8.526      4.755      7.429
REMARK INTER + INTRA:         -10.332
REMARK INTER:                  -9.930
REMARK INTRA:                  -0.402
REMARK UNBOUND:                -0.310
REMARK SMILES CN1C(N)=N[C@](C)(c2cc(NC(=O)c3ccc(F)cn3)ccc2F)CS1(=O)=O
REMARK SMILES IDX 8 1 9 2 10 3 21 4 22 5 23 6 24 7 6 8 25 9 5 10 26 11 3 12
REMARK SMILES IDX 27 13 2 14 28 15 4 16 7 17 1 18 11 21 12 22 13 23 14 25
REMARK SMILES IDX 20 26 15 27 19 28 16 29 17 30 18 31
REMARK H PARENT 4 19 4 20 11 24
ROOT
ATOM      1  C   UNL     1      20.675  12.384  26.734  1.00  0.00     0.018 A 
ATOM      2  C   UNL     1      21.065  12.691  25.431  1.00  0.00     0.035 A 
ATOM      3  C   UNL     1      21.446  11.724  24.529  1.00  0.00     0.042 A 
ATOM      4  C   UNL     1      21.475  10.386  24.903  1.00  0.00     0.029 A 
ATOM      5  C   UNL     1      21.087  10.062  26.191  1.00  0.00     0.042 A 
ATOM      6  C   UNL     1      20.677  11.040  27.075  1.00  0.00     0.129 A 
ATOM      7  F   UNL     1      20.273  10.692  28.324  1.00  0.00    -0.207 F 
ENDROOT
BRANCH   1   8
ATOM      8  C   UNL     1      20.256  13.475  27.707  1.00  0.00     0.105 C 
ATOM      9  C   UNL     1      18.957  13.219  28.437  1.00  0.00     0.195 C 
ATOM     10  N   UNL     1      20.224  14.792  27.073  1.00  0.00    -0.240 NA
ATOM     11  S   UNL     1      17.598  13.158  27.296  1.00  0.00     0.239 S 
ATOM     12  C   UNL     1      19.210  15.184  26.364  1.00  0.00     0.205 C 
ATOM     13  O   UNL     1      16.419  13.572  28.035  1.00  0.00    -0.206 OA
ATOM     14  N   UNL     1      18.012  14.446  26.233  1.00  0.00    -0.243 N 
ATOM     15  O   UNL     1      17.659  11.996  26.465  1.00  0.00    -0.206 OA
ATOM     16  N   UNL     1      19.205  16.377  25.693  1.00  0.00    -0.369 N 
ATOM     17  C   UNL     1      21.346  13.633  28.771  1.00  0.00     0.044 C 
ATOM     18  C   UNL     1      16.918  14.844  25.326  1.00  0.00     0.167 C 
ATOM     19  H   UNL     1      19.995  16.963  25.725  1.00  0.00     0.159 HD
ATOM     20  H   UNL     1      18.410  16.650  25.180  1.00  0.00     0.159 HD
ENDBRANCH   1   8
BRANCH   3  21
ATOM     21  N   UNL     1      21.818  12.167  23.253  1.00  0.00    -0.321 N 
ATOM     22  C   UNL     1      23.086  12.467  22.786  1.00  0.00     0.274 C 
ATOM     23  O   UNL     1      24.097  12.514  23.474  1.00  0.00    -0.267 OA
ATOM     24  H   UNL     1      21.084  12.280  22.607  1.00  0.00     0.170 HD
BRANCH  22  25
ATOM     25  C   UNL     1      23.181  12.708  21.326  1.00  0.00     0.128 A 
ATOM     26  N   UNL     1      24.415  12.836  20.825  1.00  0.00    -0.248 NA
ATOM     27  C   UNL     1      22.030  12.778  20.560  1.00  0.00     0.037 A 
ATOM     28  C   UNL     1      24.526  13.059  19.506  1.00  0.00     0.151 A 
ATOM     29  C   UNL     1      22.178  13.003  19.203  1.00  0.00     0.043 A 
ATOM     30  C   UNL     1      23.441  13.151  18.663  1.00  0.00     0.141 A 
ATOM     31  F   UNL     1      23.635  13.361  17.350  1.00  0.00    -0.205 F 
ENDBRANCH  22  25
ENDBRANCH   3  21
TORSDOF 3
ENDMDL
MODEL 3
REMARK VINA RESULT:    -8.373      3.342      6.941
REMARK INTER + INTRA:         -10.152
REMARK INTER:                  -9.735
REMARK INTRA:                  -0.417
REMARK UNBOUND:                -0.310
REMARK SMILES CN1C(N)=N[C@](C)(c2cc(NC(=O)c3ccc(F)cn3)ccc2F)CS1(=O)=O
REMARK SMILES IDX 8 1 9 2 10 3 21 4 22 5 23 6 24 7 6 8 25 9 5 10 26 11 3 12
REMARK SMILES IDX 27 13 2 14 28 15 4 16 7 17 1 18 11 21 12 22 13 23 14 25
REMARK SMILES IDX 20 26 15 27 19 28 16 29 17 30 18 31
REMARK H PARENT 4 19 4 20 11 24
ROOT
ATOM      1  C   UNL     1      24.050  12.353  19.966  1.00  0.00     0.018 A 
ATOM      2  C   UNL     1      23.580  12.603  21.254  1.00  0.00     0.035 A 
ATOM      3  C   UNL     1      22.465  11.978  21.765  1.00  0.00     0.042 A 
ATOM      4  C   UNL     1      21.746  11.078  20.989  1.00  0.00     0.029 A 
ATOM      5  C   UNL     1      22.200  10.816  19.709  1.00  0.00     0.042 A 
ATOM      6  C   UNL     1      23.339  11.426  19.221  1.00  0.00     0.129 A 
ATOM      7  F   UNL     1      23.780  11.128  17.972  1.00  0.00    -0.207 F 
ENDROOT
BRANCH   1   8
ATOM      8  C   UNL     1      25.288  13.058  19.432  1.00  0.00     0.105 C 
ATOM      9  C   UNL     1      26.391  12.140  18.953  1.00  0.00     0.195 C 
ATOM     10  N   UNL     1      25.821  14.029  20.385  1.00  0.00    -0.240 NA
ATOM     11  S   UNL     1      27.030  11.174  20.298  1.00  0.00     0.239 S 
ATOM     12  C   UNL     1      26.584  13.668  21.371  1.00  0.00     0.205 C 
ATOM     13  O   UNL     1      28.409  10.862  19.965  1.00  0.00    -0.206 OA
ATOM     14  N   UNL     1      27.063  12.352  21.553  1.00  0.00    -0.243 N 
ATOM     15  O   UNL     1      26.077  10.212  20.756  1.00  0.00    -0.206 OA
ATOM     16  N   UNL     1      27.017  14.553  22.321  1.00  0.00    -0.369 N 
ATOM     17  C   UNL     1      24.884  13.932  18.241  1.00  0.00     0.044 C 
ATOM     18  C   UNL     1      27.825  11.931  22.745  1.00  0.00     0.167 C 
ATOM     19  H   UNL     1      26.737  15.496  22.280  1.00  0.00     0.159 HD
ATOM     20  H   UNL     1      27.610  14.248  23.045  1.00  0.00     0.159 HD
ENDBRANCH   1   8
BRANCH   3  21
ATOM     21  N   UNL     1      22.097  12.321  23.073  1.00  0.00    -0.321 N 
ATOM     22  C   UNL     1      22.366  11.637  24.245  1.00  0.00     0.274 C 
ATOM     23  O   UNL     1      22.873  10.525  24.312  1.00  0.00    -0.267 OA
ATOM     24  H   UNL     1      21.583  13.155  23.170  1.00  0.00     0.170 HD
BRANCH  22  25
ATOM     25  C   UNL     1      22.026  12.363  25.494  1.00  0.00     0.128 A 
ATOM     26  N   UNL     1      23.043  12.627  26.321  1.00  0.00    -0.248 NA
ATOM     27  C   UNL     1      20.716  12.736  25.742  1.00  0.00     0.037 A 
ATOM     28  C   UNL     1      22.759  13.280  27.460  1.00  0.00     0.151 A 
ATOM     29  C   UNL     1      20.457  13.412  26.920  1.00  0.00     0.043 A 
ATOM     30  C   UNL     1      21.488  13.687  27.798  1.00  0.00     0.141 A 
ATOM     31  F   UNL     1      21.286  14.349  28.949  1.00  0.00    -0.205 F 
ENDBRANCH  22  25
ENDBRANCH   3  21
TORSDOF 3
ENDMDL
MODEL 4
REMARK VINA RESULT:    -8.328      3.579      7.223
REMARK INTER + INTRA:         -10.099
REMARK INTER:                  -9.768
REMARK INTRA:                  -0.331
REMARK UNBOUND:                -0.310
REMARK SMILES CN1C(N)=N[C@](C)(c2cc(NC(=O)c3ccc(F)cn3)ccc2F)CS1(=O)=O
REMARK SMILES IDX 8 1 9 2 10 3 21 4 22 5 23 6 24 7 6 8 25 9 5 10 26 11 3 12
REMARK SMILES IDX 27 13 2 14 28 15 4 16 7 17 1 18 11 21 12 22 13 23 14 25
REMARK SMILES IDX 20 26 15 27 19 28 16 29 17 30 18 31
REMARK H PARENT 4 19 4 20 11 24
ROOT
ATOM      1  C   UNL     1      22.318  11.696  20.795  1.00  0.00     0.018 A 
ATOM      2  C   UNL     1      22.293  12.083  22.134  1.00  0.00     0.035 A 
ATOM      3  C   UNL     1      21.537  11.423  23.077  1.00  0.00     0.042 A 
ATOM      4  C   UNL     1      20.742  10.344  22.712  1.00  0.00     0.029 A 
ATOM      5  C   UNL     1      20.757   9.945  21.388  1.00  0.00     0.042 A 
ATOM      6  C   UNL     1      21.545  10.595  20.459  1.00  0.00     0.129 A 
ATOM      7  F   UNL     1      21.564  10.165  19.171  1.00  0.00    -0.207 F 
ENDROOT
BRANCH   1   8
ATOM      8  C   UNL     1      23.166  12.443  19.778  1.00  0.00     0.105 C 
ATOM      9  C   UNL     1      23.979  11.564  18.853  1.00  0.00     0.195 C 
ATOM     10  N   UNL     1      24.028  13.441  20.409  1.00  0.00    -0.240 NA
ATOM     11  S   UNL     1      25.181  10.633  19.768  1.00  0.00     0.239 S 
ATOM     12  C   UNL     1      25.160  13.116  20.955  1.00  0.00     0.205 C 
ATOM     13  O   UNL     1      26.282  10.372  18.859  1.00  0.00    -0.206 OA
ATOM     14  N   UNL     1      25.719  11.820  20.893  1.00  0.00    -0.243 N 
ATOM     15  O   UNL     1      24.564   9.639  20.590  1.00  0.00    -0.206 OA
ATOM     16  N   UNL     1      25.934  14.024  21.626  1.00  0.00    -0.369 N 
ATOM     17  C   UNL     1      22.247  13.293  18.896  1.00  0.00     0.044 C 
ATOM     18  C   UNL     1      26.943  11.437  21.623  1.00  0.00     0.167 C 
ATOM     19  H   UNL     1      25.629  14.955  21.722  1.00  0.00     0.159 HD
ATOM     20  H   UNL     1      26.797  13.746  22.012  1.00  0.00     0.159 HD
ENDBRANCH   1   8
BRANCH   3  21
ATOM     21  N   UNL     1      21.599  11.915  24.388  1.00  0.00    -0.321 N 
ATOM     22  C   UNL     1      20.683  12.714  25.048  1.00  0.00     0.274 C 
ATOM     23  O   UNL     1      19.704  13.237  24.532  1.00  0.00    -0.267 OA
ATOM     24  H   UNL     1      22.397  11.659  24.905  1.00  0.00     0.170 HD
BRANCH  22  25
ATOM     25  C   UNL     1      20.929  12.893  26.499  1.00  0.00     0.128 A 
ATOM     26  N   UNL     1      20.809  14.138  26.972  1.00  0.00    -0.248 NA
ATOM     27  C   UNL     1      21.251  11.800  27.286  1.00  0.00     0.037 A 
ATOM     28  C   UNL     1      21.032  14.326  28.283  1.00  0.00     0.151 A 
ATOM     29  C   UNL     1      21.468  12.025  28.634  1.00  0.00     0.043 A 
ATOM     30  C   UNL     1      21.363  13.304  29.144  1.00  0.00     0.141 A 
ATOM     31  F   UNL     1      21.556  13.569  30.448  1.00  0.00    -0.205 F 
ENDBRANCH  22  25
ENDBRANCH   3  21
TORSDOF 3
ENDMDL
MODEL 5
REMARK VINA RESULT:    -8.169      3.696      6.916
REMARK INTER + INTRA:          -9.912
REMARK INTER:                 -10.478
REMARK INTRA:                   0.566
REMARK UNBOUND:                -0.310
REMARK SMILES CN1C(N)=N[C@](C)(c2cc(NC(=O)c3ccc(F)cn3)ccc2F)CS1(=O)=O
REMARK SMILES IDX 8 1 9 2 10 3 21 4 22 5 23 6 24 7 6 8 25 9 5 10 26 11 3 12
REMARK SMILES IDX 27 13 2 14 28 15 4 16 7 17 1 18 11 21 12 22 13 23 14 25
REMARK SMILES IDX 20 26 15 27 19 28 16 29 17 30 18 31
REMARK H PARENT 4 19 4 20 11 24
ROOT
ATOM      1  C   UNL     1      24.249  11.965  20.402  1.00  0.00     0.018 A 
ATOM      2  C   UNL     1      23.898  11.839  21.746  1.00  0.00     0.035 A 
ATOM      3  C   UNL     1      22.651  12.181  22.216  1.00  0.00     0.042 A 
ATOM      4  C   UNL     1      21.690  12.694  21.353  1.00  0.00     0.029 A 
ATOM      5  C   UNL     1      22.019  12.822  20.016  1.00  0.00     0.042 A 
ATOM      6  C   UNL     1      23.264  12.445  19.553  1.00  0.00     0.129 A 
ATOM      7  F   UNL     1      23.553  12.554  18.230  1.00  0.00    -0.207 F 
ENDROOT
BRANCH   1   8
ATOM      8  C   UNL     1      25.635  11.575  19.913  1.00  0.00     0.105 C 
ATOM      9  C   UNL     1      26.754  11.809  20.903  1.00  0.00     0.195 C 
ATOM     10  N   UNL     1      25.960  12.199  18.631  1.00  0.00    -0.240 NA
ATOM     11  S   UNL     1      26.927  13.540  21.256  1.00  0.00     0.239 S 
ATOM     12  C   UNL     1      26.394  13.420  18.559  1.00  0.00     0.205 C 
ATOM     13  O   UNL     1      28.316  13.752  21.621  1.00  0.00    -0.206 OA
ATOM     14  N   UNL     1      26.705  14.212  19.686  1.00  0.00    -0.243 N 
ATOM     15  O   UNL     1      25.814  14.040  22.002  1.00  0.00    -0.206 OA
ATOM     16  N   UNL     1      26.618  14.046  17.362  1.00  0.00    -0.369 N 
ATOM     17  C   UNL     1      25.639  10.081  19.577  1.00  0.00     0.044 C 
ATOM     18  C   UNL     1      27.078  15.637  19.591  1.00  0.00     0.167 C 
ATOM     19  H   UNL     1      26.432  13.574  16.518  1.00  0.00     0.159 HD
ATOM     20  H   UNL     1      26.966  14.967  17.345  1.00  0.00     0.159 HD
ENDBRANCH   1   8
BRANCH   3  21
ATOM     21  N   UNL     1      22.428  12.009  23.589  1.00  0.00    -0.321 N 
ATOM     22  C   UNL     1      23.174  12.499  24.646  1.00  0.00     0.274 C 
ATOM     23  O   UNL     1      24.250  13.073  24.543  1.00  0.00    -0.267 OA
ATOM     24  H   UNL     1      21.641  11.470  23.831  1.00  0.00     0.170 HD
BRANCH  22  25
ATOM     25  C   UNL     1      22.563  12.323  25.986  1.00  0.00     0.128 A 
ATOM     26  N   UNL     1      23.121  13.013  26.987  1.00  0.00    -0.248 NA
ATOM     27  C   UNL     1      21.471  11.488  26.144  1.00  0.00     0.037 A 
ATOM     28  C   UNL     1      22.588  12.867  28.211  1.00  0.00     0.151 A 
ATOM     29  C   UNL     1      20.941  11.362  27.416  1.00  0.00     0.043 A 
ATOM     30  C   UNL     1      21.506  12.055  28.468  1.00  0.00     0.141 A 
ATOM     31  F   UNL     1      21.020  11.972  29.719  1.00  0.00    -0.205 F 
ENDBRANCH  22  25
ENDBRANCH   3  21
TORSDOF 3
ENDMDL
MODEL 6
REMARK VINA RESULT:    -7.998      3.690      7.414
REMARK INTER + INTRA:          -9.711
REMARK INTER:                  -9.343
REMARK INTRA:                  -0.369
REMARK UNBOUND:                -0.310
REMARK SMILES CN1C(N)=N[C@](C)(c2cc(NC(=O)c3ccc(F)cn3)ccc2F)CS1(=O)=O
REMARK SMILES IDX 8 1 9 2 10 3 21 4 22 5 23 6 24 7 6 8 25 9 5 10 26 11 3 12
REMARK SMILES IDX 27 13 2 14 28 15 4 16 7 17 1 18 11 21 12 22 13 23 14 25
REMARK SMILES IDX 20 26 15 27 19 28 16 29 17 30 18 31
REMARK H PARENT 4 19 4 20 11 24
ROOT
ATOM      1  C   UNL     1      25.979  12.619  20.417  1.00  0.00     0.018 A 
ATOM      2  C   UNL     1      25.073  12.645  21.475  1.00  0.00     0.035 A 
ATOM      3  C   UNL     1      24.190  11.616  21.714  1.00  0.00     0.042 A 
ATOM      4  C   UNL     1      24.159  10.508  20.876  1.00  0.00     0.029 A 
ATOM      5  C   UNL     1      25.054  10.464  19.822  1.00  0.00     0.042 A 
ATOM      6  C   UNL     1      25.956  11.489  19.615  1.00  0.00     0.129 A 
ATOM      7  F   UNL     1      26.843  11.408  18.590  1.00  0.00    -0.207 F 
ENDROOT
BRANCH   1   8
ATOM      8  C   UNL     1      26.944  13.770  20.182  1.00  0.00     0.105 C 
ATOM      9  C   UNL     1      28.408  13.388  20.171  1.00  0.00     0.195 C 
ATOM     10  N   UNL     1      26.721  14.873  21.115  1.00  0.00    -0.240 NA
ATOM     11  S   UNL     1      28.905  12.767  21.758  1.00  0.00     0.239 S 
ATOM     12  C   UNL     1      27.203  14.856  22.319  1.00  0.00     0.205 C 
ATOM     13  O   UNL     1      30.323  13.050  21.888  1.00  0.00    -0.206 OA
ATOM     14  N   UNL     1      28.072  13.852  22.803  1.00  0.00    -0.243 N 
ATOM     15  O   UNL     1      28.310  11.498  22.038  1.00  0.00    -0.206 OA
ATOM     16  N   UNL     1      26.928  15.839  23.231  1.00  0.00    -0.369 N 
ATOM     17  C   UNL     1      26.637  14.404  18.822  1.00  0.00     0.044 C 
ATOM     18  C   UNL     1      28.512  13.779  24.210  1.00  0.00     0.167 C 
ATOM     19  H   UNL     1      26.332  16.584  22.987  1.00  0.00     0.159 HD
ATOM     20  H   UNL     1      27.327  15.802  24.131  1.00  0.00     0.159 HD
ENDBRANCH   1   8
BRANCH   3  21
ATOM     21  N   UNL     1      23.330  11.767  22.809  1.00  0.00    -0.321 N 
ATOM     22  C   UNL     1      22.059  12.314  22.833  1.00  0.00     0.274 C 
ATOM     23  O   UNL     1      21.521  12.885  21.893  1.00  0.00    -0.267 OA
ATOM     24  H   UNL     1      23.674  11.443  23.673  1.00  0.00     0.170 HD
BRANCH  22  25
ATOM     25  C   UNL     1      21.318  12.141  24.106  1.00  0.00     0.128 A 
ATOM     26  N   UNL     1      21.880  12.672  25.196  1.00  0.00    -0.248 NA
ATOM     27  C   UNL     1      20.109  11.467  24.115  1.00  0.00     0.037 A 
ATOM     28  C   UNL     1      21.230  12.524  26.362  1.00  0.00     0.151 A 
ATOM     29  C   UNL     1      19.460  11.336  25.330  1.00  0.00     0.043 A 
ATOM     30  C   UNL     1      20.026  11.866  26.473  1.00  0.00     0.141 A 
ATOM     31  F   UNL     1      19.428  11.771  27.673  1.00  0.00    -0.205 F 
ENDBRANCH  22  25
ENDBRANCH   3  21
TORSDOF 3
ENDMDL
MODEL 7
REMARK VINA RESULT:    -7.943      5.127      7.868
REMARK INTER + INTRA:          -9.646
REMARK INTER:                  -9.421
REMARK INTRA:                  -0.225
REMARK UNBOUND:                -0.310
REMARK SMILES CN1C(N)=N[C@](C)(c2cc(NC(=O)c3ccc(F)cn3)ccc2F)CS1(=O)=O
REMARK SMILES IDX 8 1 9 2 10 3 21 4 22 5 23 6 24 7 6 8 25 9 5 10 26 11 3 12
REMARK SMILES IDX 27 13 2 14 28 15 4 16 7 17 1 18 11 21 12 22 13 23 14 25
REMARK SMILES IDX 20 26 15 27 19 28 16 29 17 30 18 31
REMARK H PARENT 4 19 4 20 11 24
ROOT
ATOM      1  C   UNL     1      20.429  12.595  26.930  1.00  0.00     0.018 A 
ATOM      2  C   UNL     1      20.909  12.643  25.622  1.00  0.00     0.035 A 
ATOM      3  C   UNL     1      21.277  11.511  24.931  1.00  0.00     0.042 A 
ATOM      4  C   UNL     1      21.202  10.262  25.536  1.00  0.00     0.029 A 
ATOM      5  C   UNL     1      20.725  10.196  26.833  1.00  0.00     0.042 A 
ATOM      6  C   UNL     1      20.329  11.337  27.502  1.00  0.00     0.129 A 
ATOM      7  F   UNL     1      19.837  11.241  28.764  1.00  0.00    -0.207 F 
ENDROOT
BRANCH   1   8
ATOM      8  C   UNL     1      20.027  13.864  27.665  1.00  0.00     0.105 C 
ATOM      9  C   UNL     1      18.727  13.775  28.434  1.00  0.00     0.195 C 
ATOM     10  N   UNL     1      20.008  15.028  26.781  1.00  0.00    -0.240 NA
ATOM     11  S   UNL     1      17.364  13.503  27.331  1.00  0.00     0.239 S 
ATOM     12  C   UNL     1      18.995  15.282  26.010  1.00  0.00     0.205 C 
ATOM     13  O   UNL     1      16.192  14.071  27.974  1.00  0.00    -0.206 OA
ATOM     14  N   UNL     1      17.789  14.548  26.031  1.00  0.00    -0.243 N 
ATOM     15  O   UNL     1      17.408  12.198  26.749  1.00  0.00    -0.206 OA
ATOM     16  N   UNL     1      19.001  16.317  25.114  1.00  0.00    -0.369 N 
ATOM     17  C   UNL     1      21.122  14.219  28.675  1.00  0.00     0.044 C 
ATOM     18  C   UNL     1      16.695  14.770  25.064  1.00  0.00     0.167 C 
ATOM     19  H   UNL     1      19.798  16.888  25.026  1.00  0.00     0.159 HD
ATOM     20  H   UNL     1      18.207  16.491  24.558  1.00  0.00     0.159 HD
ENDBRANCH   1   8
BRANCH   3  21
ATOM     21  N   UNL     1      21.745  11.697  23.624  1.00  0.00    -0.321 N 
ATOM     22  C   UNL     1      21.240  11.169  22.449  1.00  0.00     0.274 C 
ATOM     23  O   UNL     1      20.354  10.327  22.379  1.00  0.00    -0.267 OA
ATOM     24  H   UNL     1      22.534  12.279  23.529  1.00  0.00     0.170 HD
BRANCH  22  25
ATOM     25  C   UNL     1      21.825  11.721  21.203  1.00  0.00     0.128 A 
ATOM     26  N   UNL     1      22.346  10.834  20.349  1.00  0.00    -0.248 NA
ATOM     27  C   UNL     1      21.802  13.086  20.975  1.00  0.00     0.037 A 
ATOM     28  C   UNL     1      22.886  11.312  19.215  1.00  0.00     0.151 A 
ATOM     29  C   UNL     1      22.360  13.547  19.796  1.00  0.00     0.043 A 
ATOM     30  C   UNL     1      22.915  12.652  18.902  1.00  0.00     0.141 A 
ATOM     31  F   UNL     1      23.460  13.051  17.740  1.00  0.00    -0.205 F 
ENDBRANCH  22  25
ENDBRANCH   3  21
TORSDOF 3
ENDMDL
MODEL 8
REMARK VINA RESULT:    -7.910      3.817      4.692
REMARK INTER + INTRA:          -9.607
REMARK INTER:                 -10.319
REMARK INTRA:                   0.711
REMARK UNBOUND:                -0.310
REMARK SMILES CN1C(N)=N[C@](C)(c2cc(NC(=O)c3ccc(F)cn3)ccc2F)CS1(=O)=O
REMARK SMILES IDX 8 1 9 2 10 3 21 4 22 5 23 6 24 7 6 8 25 9 5 10 26 11 3 12
REMARK SMILES IDX 27 13 2 14 28 15 4 16 7 17 1 18 11 21 12 22 13 23 14 25
REMARK SMILES IDX 20 26 15 27 19 28 16 29 17 30 18 31
REMARK H PARENT 4 19 4 20 11 24
ROOT
ATOM      1  C   UNL     1      24.146  12.096  20.691  1.00  0.00     0.018 A 
ATOM      2  C   UNL     1      24.757  12.889  21.662  1.00  0.00     0.035 A 
ATOM      3  C   UNL     1      26.083  12.745  22.002  1.00  0.00     0.042 A 
ATOM      4  C   UNL     1      26.864  11.771  21.392  1.00  0.00     0.029 A 
ATOM      5  C   UNL     1      26.275  10.977  20.424  1.00  0.00     0.042 A 
ATOM      6  C   UNL     1      24.952  11.154  20.070  1.00  0.00     0.129 A 
ATOM      7  F   UNL     1      24.406  10.381  19.097  1.00  0.00    -0.207 F 
ENDROOT
BRANCH   1   8
ATOM      8  C   UNL     1      22.679  12.281  20.336  1.00  0.00     0.105 C 
ATOM      9  C   UNL     1      21.859  13.026  21.365  1.00  0.00     0.195 C 
ATOM     10  N   UNL     1      22.032  11.013  20.000  1.00  0.00    -0.240 NA
ATOM     11  S   UNL     1      21.789  12.117  22.888  1.00  0.00     0.239 S 
ATOM     12  C   UNL     1      21.597  10.206  20.918  1.00  0.00     0.205 C 
ATOM     13  O   UNL     1      20.545  12.490  23.536  1.00  0.00    -0.206 OA
ATOM     14  N   UNL     1      21.595  10.512  22.297  1.00  0.00    -0.243 N 
ATOM     15  O   UNL     1      23.059  12.089  23.544  1.00  0.00    -0.206 OA
ATOM     16  N   UNL     1      21.069   8.978  20.621  1.00  0.00    -0.369 N 
ATOM     17  C   UNL     1      22.584  13.071  19.028  1.00  0.00     0.044 C 
ATOM     18  C   UNL     1      21.213   9.537  23.337  1.00  0.00     0.167 C 
ATOM     19  H   UNL     1      21.027   8.674  19.685  1.00  0.00     0.159 HD
ATOM     20  H   UNL     1      20.732   8.399  21.342  1.00  0.00     0.159 HD
ENDBRANCH   1   8
BRANCH   3  21
ATOM     21  N   UNL     1      26.573  13.604  22.995  1.00  0.00    -0.321 N 
ATOM     22  C   UNL     1      26.325  13.570  24.355  1.00  0.00     0.274 C 
ATOM     23  O   UNL     1      25.512  12.839  24.905  1.00  0.00    -0.267 OA
ATOM     24  H   UNL     1      27.170  14.323  22.684  1.00  0.00     0.170 HD
BRANCH  22  25
ATOM     25  C   UNL     1      27.158  14.485  25.173  1.00  0.00     0.128 A 
ATOM     26  N   UNL     1      28.442  14.145  25.321  1.00  0.00    -0.248 NA
ATOM     27  C   UNL     1      26.596  15.623  25.726  1.00  0.00     0.037 A 
ATOM     28  C   UNL     1      29.216  14.957  26.061  1.00  0.00     0.151 A 
ATOM     29  C   UNL     1      27.419  16.442  26.478  1.00  0.00     0.043 A 
ATOM     30  C   UNL     1      28.747  16.106  26.655  1.00  0.00     0.141 A 
ATOM     31  F   UNL     1      29.587  16.875  27.370  1.00  0.00    -0.205 F 
ENDBRANCH  22  25
ENDBRANCH   3  21
TORSDOF 3
ENDMDL
MODEL 9
REMARK VINA RESULT:    -7.906      4.665      6.794
REMARK INTER + INTRA:          -9.603
REMARK INTER:                 -10.277
REMARK INTRA:                   0.673
REMARK UNBOUND:                -0.310
REMARK SMILES CN1C(N)=N[C@](C)(c2cc(NC(=O)c3ccc(F)cn3)ccc2F)CS1(=O)=O
REMARK SMILES IDX 8 1 9 2 10 3 21 4 22 5 23 6 24 7 6 8 25 9 5 10 26 11 3 12
REMARK SMILES IDX 27 13 2 14 28 15 4 16 7 17 1 18 11 21 12 22 13 23 14 25
REMARK SMILES IDX 20 26 15 27 19 28 16 29 17 30 18 31
REMARK H PARENT 4 19 4 20 11 24
ROOT
ATOM      1  C   UNL     1      19.227  12.316  25.043  1.00  0.00     0.018 A 
ATOM      2  C   UNL     1      20.172  12.596  24.057  1.00  0.00     0.035 A 
ATOM      3  C   UNL     1      20.668  11.626  23.216  1.00  0.00     0.042 A 
ATOM      4  C   UNL     1      20.251  10.306  23.341  1.00  0.00     0.029 A 
ATOM      5  C   UNL     1      19.311  10.011  24.312  1.00  0.00     0.042 A 
ATOM      6  C   UNL     1      18.797  11.000  25.127  1.00  0.00     0.129 A 
ATOM      7  F   UNL     1      17.854  10.689  26.053  1.00  0.00    -0.207 F 
ENDROOT
BRANCH   1   8
ATOM      8  C   UNL     1      18.695  13.411  25.954  1.00  0.00     0.105 C 
ATOM      9  C   UNL     1      19.670  14.530  26.248  1.00  0.00     0.195 C 
ATOM     10  N   UNL     1      18.157  12.873  27.203  1.00  0.00    -0.240 NA
ATOM     11  S   UNL     1      21.077  13.917  27.139  1.00  0.00     0.239 S 
ATOM     12  C   UNL     1      18.928  12.565  28.200  1.00  0.00     0.205 C 
ATOM     13  O   UNL     1      21.583  15.026  27.927  1.00  0.00    -0.206 OA
ATOM     14  N   UNL     1      20.317  12.822  28.228  1.00  0.00    -0.243 N 
ATOM     15  O   UNL     1      21.893  13.074  26.321  1.00  0.00    -0.206 OA
ATOM     16  N   UNL     1      18.448  11.979  29.340  1.00  0.00    -0.369 N 
ATOM     17  C   UNL     1      17.466  14.047  25.298  1.00  0.00     0.044 C 
ATOM     18  C   UNL     1      21.200  12.355  29.315  1.00  0.00     0.167 C 
ATOM     19  H   UNL     1      17.491  11.760  29.416  1.00  0.00     0.159 HD
ATOM     20  H   UNL     1      19.060  11.776  30.085  1.00  0.00     0.159 HD
ENDBRANCH   1   8
BRANCH   3  21
ATOM     21  N   UNL     1      21.616  12.039  22.271  1.00  0.00    -0.321 N 
ATOM     22  C   UNL     1      21.781  11.593  20.972  1.00  0.00     0.274 C 
ATOM     23  O   UNL     1      21.188  10.646  20.471  1.00  0.00    -0.267 OA
ATOM     24  H   UNL     1      22.243  12.737  22.569  1.00  0.00     0.170 HD
BRANCH  22  25
ATOM     25  C   UNL     1      22.737  12.375  20.150  1.00  0.00     0.128 A 
ATOM     26  N   UNL     1      23.984  12.472  20.623  1.00  0.00    -0.248 NA
ATOM     27  C   UNL     1      22.319  12.946  18.961  1.00  0.00     0.037 A 
ATOM     28  C   UNL     1      24.866  13.179  19.898  1.00  0.00     0.151 A 
ATOM     29  C   UNL     1      23.253  13.663  18.234  1.00  0.00     0.043 A 
ATOM     30  C   UNL     1      24.545  13.789  18.707  1.00  0.00     0.141 A 
ATOM     31  F   UNL     1      25.488  14.467  18.031  1.00  0.00    -0.205 F 
ENDBRANCH  22  25
ENDBRANCH   3  21
TORSDOF 3
ENDMDL
MODEL 10
REMARK VINA RESULT:    -7.507      3.586      6.683
REMARK INTER + INTRA:          -9.134
REMARK INTER:                  -9.123
REMARK INTRA:                  -0.010
REMARK UNBOUND:                -0.310
REMARK SMILES CN1C(N)=N[C@](C)(c2cc(NC(=O)c3ccc(F)cn3)ccc2F)CS1(=O)=O
REMARK SMILES IDX 8 1 9 2 10 3 21 4 22 5 23 6 24 7 6 8 25 9 5 10 26 11 3 12
REMARK SMILES IDX 27 13 2 14 28 15 4 16 7 17 1 18 11 21 12 22 13 23 14 25
REMARK SMILES IDX 20 26 15 27 19 28 16 29 17 30 18 31
REMARK H PARENT 4 19 4 20 11 24
ROOT
ATOM      1  C   UNL     1      26.304  12.221  21.522  1.00  0.00     0.018 A 
ATOM      2  C   UNL     1      25.433  12.212  22.611  1.00  0.00     0.035 A 
ATOM      3  C   UNL     1      25.460  13.186  23.583  1.00  0.00     0.042 A 
ATOM      4  C   UNL     1      26.389  14.217  23.521  1.00  0.00     0.029 A 
ATOM      5  C   UNL     1      27.258  14.244  22.445  1.00  0.00     0.042 A 
ATOM      6  C   UNL     1      27.199  13.278  21.460  1.00  0.00     0.129 A 
ATOM      7  F   UNL     1      28.044  13.344  20.400  1.00  0.00    -0.207 F 
ENDROOT
BRANCH   1   8
ATOM      8  C   UNL     1      26.247  11.132  20.462  1.00  0.00     0.105 C 
ATOM      9  C   UNL     1      25.932  11.615  19.064  1.00  0.00     0.195 C 
ATOM     10  N   UNL     1      25.339  10.049  20.836  1.00  0.00    -0.240 NA
ATOM     11  S   UNL     1      24.306  12.323  18.997  1.00  0.00     0.239 S 
ATOM     12  C   UNL     1      24.058  10.142  20.656  1.00  0.00     0.205 C 
ATOM     13  O   UNL     1      23.832  12.144  17.636  1.00  0.00    -0.206 OA
ATOM     14  N   UNL     1      23.433  11.219  19.989  1.00  0.00    -0.243 N 
ATOM     15  O   UNL     1      24.237  13.557  19.715  1.00  0.00    -0.206 OA
ATOM     16  N   UNL     1      23.188   9.173  21.082  1.00  0.00    -0.369 N 
ATOM     17  C   UNL     1      27.608  10.433  20.399  1.00  0.00     0.044 C 
ATOM     18  C   UNL     1      21.968  11.371  19.902  1.00  0.00     0.167 C 
ATOM     19  H   UNL     1      23.528   8.381  21.558  1.00  0.00     0.159 HD
ATOM     20  H   UNL     1      22.223   9.269  20.912  1.00  0.00     0.159 HD
ENDBRANCH   1   8
BRANCH   3  21
ATOM     21  N   UNL     1      24.533  13.058  24.626  1.00  0.00    -0.321 N 
ATOM     22  C   UNL     1      23.262  12.511  24.581  1.00  0.00     0.274 C 
ATOM     23  O   UNL     1      22.684  12.157  23.562  1.00  0.00    -0.267 OA
ATOM     24  H   UNL     1      24.822  13.400  25.502  1.00  0.00     0.170 HD
BRANCH  22  25
ATOM     25  C   UNL     1      22.605  12.326  25.897  1.00  0.00     0.128 A 
ATOM     26  N   UNL     1      23.136  12.998  26.924  1.00  0.00    -0.248 NA
ATOM     27  C   UNL     1      21.499  11.502  26.008  1.00  0.00     0.037 A 
ATOM     28  C   UNL     1      22.560  12.844  28.128  1.00  0.00     0.151 A 
ATOM     29  C   UNL     1      20.924  11.368  27.260  1.00  0.00     0.043 A 
ATOM     30  C   UNL     1      21.461  12.043  28.339  1.00  0.00     0.141 A 
ATOM     31  F   UNL     1      20.932  11.951  29.571  1.00  0.00    -0.205 F 
ENDBRANCH  22  25
ENDBRANCH   3  21
TORSDOF 3
ENDMDL
MODEL 11
REMARK VINA RESULT:    -7.490      3.590      7.728
REMARK INTER + INTRA:          -9.114
REMARK INTER:                  -8.752
REMARK INTRA:                  -0.362
REMARK UNBOUND:                -0.310
REMARK SMILES CN1C(N)=N[C@](C)(c2cc(NC(=O)c3ccc(F)cn3)ccc2F)CS1(=O)=O
REMARK SMILES IDX 8 1 9 2 10 3 21 4 22 5 23 6 24 7 6 8 25 9 5 10 26 11 3 12
REMARK SMILES IDX 27 13 2 14 28 15 4 16 7 17 1 18 11 21 12 22 13 23 14 25
REMARK SMILES IDX 20 26 15 27 19 28 16 29 17 30 18 31
REMARK H PARENT 4 19 4 20 11 24
ROOT
ATOM      1  C   UNL     1      26.391  12.426  21.736  1.00  0.00     0.018 A 
ATOM      2  C   UNL     1      25.073  12.316  22.178  1.00  0.00     0.035 A 
ATOM      3  C   UNL     1      24.652  12.849  23.375  1.00  0.00     0.042 A 
ATOM      4  C   UNL     1      25.549  13.507  24.207  1.00  0.00     0.029 A 
ATOM      5  C   UNL     1      26.860  13.629  23.782  1.00  0.00     0.042 A 
ATOM      6  C   UNL     1      27.261  13.117  22.564  1.00  0.00     0.129 A 
ATOM      7  F   UNL     1      28.547  13.275  22.157  1.00  0.00    -0.207 F 
ENDROOT
BRANCH   1   8
ATOM      8  C   UNL     1      26.825  11.828  20.406  1.00  0.00     0.105 C 
ATOM      9  C   UNL     1      27.458  12.805  19.441  1.00  0.00     0.195 C 
ATOM     10  N   UNL     1      25.738  11.106  19.748  1.00  0.00    -0.240 NA
ATOM     11  S   UNL     1      26.292  14.053  18.956  1.00  0.00     0.239 S 
ATOM     12  C   UNL     1      24.832  11.722  19.053  1.00  0.00     0.205 C 
ATOM     13  O   UNL     1      26.690  14.500  17.634  1.00  0.00    -0.206 OA
ATOM     14  N   UNL     1      24.868  13.105  18.767  1.00  0.00    -0.243 N 
ATOM     15  O   UNL     1      25.978  14.930  20.040  1.00  0.00    -0.206 OA
ATOM     16  N   UNL     1      23.761  11.069  18.506  1.00  0.00    -0.369 N 
ATOM     17  C   UNL     1      27.856  10.728  20.673  1.00  0.00     0.044 C 
ATOM     18  C   UNL     1      23.769  13.814  18.082  1.00  0.00     0.167 C 
ATOM     19  H   UNL     1      23.649  10.101  18.649  1.00  0.00     0.159 HD
ATOM     20  H   UNL     1      23.103  11.567  17.968  1.00  0.00     0.159 HD
ENDBRANCH   1   8
BRANCH   3  21
ATOM     21  N   UNL     1      23.302  12.666  23.703  1.00  0.00    -0.321 N 
ATOM     22  C   UNL     1      22.756  11.803  24.636  1.00  0.00     0.274 C 
ATOM     23  O   UNL     1      23.377  10.946  25.251  1.00  0.00    -0.267 OA
ATOM     24  H   UNL     1      22.660  13.224  23.206  1.00  0.00     0.170 HD
BRANCH  22  25
ATOM     25  C   UNL     1      21.309  11.992  24.904  1.00  0.00     0.128 A 
ATOM     26  N   UNL     1      20.952  13.170  25.425  1.00  0.00    -0.248 NA
ATOM     27  C   UNL     1      20.413  10.981  24.603  1.00  0.00     0.037 A 
ATOM     28  C   UNL     1      19.647  13.363  25.680  1.00  0.00     0.151 A 
ATOM     29  C   UNL     1      19.075  11.212  24.872  1.00  0.00     0.043 A 
ATOM     30  C   UNL     1      18.682  12.416  25.422  1.00  0.00     0.141 A 
ATOM     31  F   UNL     1      17.394  12.689  25.691  1.00  0.00    -0.205 F 
ENDBRANCH  22  25
ENDBRANCH   3  21
TORSDOF 3
ENDMDL
MODEL 12
REMARK VINA RESULT:    -7.466      5.556      8.912
REMARK INTER + INTRA:          -9.086
REMARK INTER:                  -8.855
REMARK INTRA:                  -0.231
REMARK UNBOUND:                -0.310
REMARK SMILES CN1C(N)=N[C@](C)(c2cc(NC(=O)c3ccc(F)cn3)ccc2F)CS1(=O)=O
REMARK SMILES IDX 8 1 9 2 10 3 21 4 22 5 23 6 24 7 6 8 25 9 5 10 26 11 3 12
REMARK SMILES IDX 27 13 2 14 28 15 4 16 7 17 1 18 11 21 12 22 13 23 14 25
REMARK SMILES IDX 20 26 15 27 19 28 16 29 17 30 18 31
REMARK H PARENT 4 19 4 20 11 24
ROOT
ATOM      1  C   UNL     1      18.870  14.539  27.027  1.00  0.00     0.018 A 
ATOM      2  C   UNL     1      19.454  14.059  25.855  1.00  0.00     0.035 A 
ATOM      3  C   UNL     1      20.270  12.951  25.840  1.00  0.00     0.042 A 
ATOM      4  C   UNL     1      20.561  12.275  27.018  1.00  0.00     0.029 A 
ATOM      5  C   UNL     1      19.988  12.736  28.191  1.00  0.00     0.042 A 
ATOM      6  C   UNL     1      19.145  13.830  28.186  1.00  0.00     0.129 A 
ATOM      7  F   UNL     1      18.572  14.244  29.345  1.00  0.00    -0.207 F 
ENDROOT
BRANCH   1   8
ATOM      8  C   UNL     1      17.971  15.765  27.010  1.00  0.00     0.105 C 
ATOM      9  C   UNL     1      16.756  15.680  27.908  1.00  0.00     0.195 C 
ATOM     10  N   UNL     1      17.568  16.133  25.654  1.00  0.00    -0.240 NA
ATOM     11  S   UNL     1      15.671  14.382  27.373  1.00  0.00     0.239 S 
ATOM     12  C   UNL     1      16.587  15.537  25.049  1.00  0.00     0.205 C 
ATOM     13  O   UNL     1      14.333  14.762  27.788  1.00  0.00    -0.206 OA
ATOM     14  N   UNL     1      15.750  14.580  25.664  1.00  0.00    -0.243 N 
ATOM     15  O   UNL     1      16.244  13.091  27.594  1.00  0.00    -0.206 OA
ATOM     16  N   UNL     1      16.257  15.809  23.749  1.00  0.00    -0.369 N 
ATOM     17  C   UNL     1      18.783  16.980  27.468  1.00  0.00     0.044 C 
ATOM     18  C   UNL     1      14.719  13.821  24.929  1.00  0.00     0.167 C 
ATOM     19  H   UNL     1      16.782  16.465  23.235  1.00  0.00     0.159 HD
ATOM     20  H   UNL     1      15.494  15.351  23.328  1.00  0.00     0.159 HD
ENDBRANCH   1   8
BRANCH   3  21
ATOM     21  N   UNL     1      20.794  12.574  24.597  1.00  0.00    -0.321 N 
ATOM     22  C   UNL     1      20.397  11.532  23.778  1.00  0.00     0.274 C 
ATOM     23  O   UNL     1      19.582  10.671  24.081  1.00  0.00    -0.267 OA
ATOM     24  H   UNL     1      21.541  13.122  24.262  1.00  0.00     0.170 HD
BRANCH  22  25
ATOM     25  C   UNL     1      21.007  11.520  22.427  1.00  0.00     0.128 A 
ATOM     26  N   UNL     1      20.892  10.381  21.735  1.00  0.00    -0.248 NA
ATOM     27  C   UNL     1      21.641  12.652  21.944  1.00  0.00     0.037 A 
ATOM     28  C   UNL     1      21.441  10.345  20.509  1.00  0.00     0.151 A 
ATOM     29  C   UNL     1      22.191  12.585  20.676  1.00  0.00     0.043 A 
ATOM     30  C   UNL     1      22.097  11.416  19.946  1.00  0.00     0.141 A 
ATOM     31  F   UNL     1      22.607  11.307  18.708  1.00  0.00    -0.205 F 
ENDBRANCH  22  25
ENDBRANCH   3  21
TORSDOF 3
ENDMDL
MODEL 13
REMARK VINA RESULT:    -7.430      4.463      7.755
REMARK INTER + INTRA:          -9.044
REMARK INTER:                  -8.653
REMARK INTRA:                  -0.391
REMARK UNBOUND:                -0.310
REMARK SMILES CN1C(N)=N[C@](C)(c2cc(NC(=O)c3ccc(F)cn3)ccc2F)CS1(=O)=O
REMARK SMILES IDX 8 1 9 2 10 3 21 4 22 5 23 6 24 7 6 8 25 9 5 10 26 11 3 12
REMARK SMILES IDX 27 13 2 14 28 15 4 16 7 17 1 18 11 21 12 22 13 23 14 25
REMARK SMILES IDX 20 26 15 27 19 28 16 29 17 30 18 31
REMARK H PARENT 4 19 4 20 11 24
ROOT
ATOM      1  C   UNL     1      27.003  14.083  21.370  1.00  0.00     0.018 A 
ATOM      2  C   UNL     1      25.860  13.759  22.100  1.00  0.00     0.035 A 
ATOM      3  C   UNL     1      25.193  12.567  21.934  1.00  0.00     0.042 A 
ATOM      4  C   UNL     1      25.633  11.639  20.998  1.00  0.00     0.029 A 
ATOM      5  C   UNL     1      26.768  11.942  20.266  1.00  0.00     0.042 A 
ATOM      6  C   UNL     1      27.445  13.128  20.467  1.00  0.00     0.129 A 
ATOM      7  F   UNL     1      28.573  13.388  19.756  1.00  0.00    -0.207 F 
ENDROOT
BRANCH   1   8
ATOM      8  C   UNL     1      27.720  15.407  21.579  1.00  0.00     0.105 C 
ATOM      9  C   UNL     1      29.199  15.296  21.874  1.00  0.00     0.195 C 
ATOM     10  N   UNL     1      27.066  16.231  22.594  1.00  0.00    -0.240 NA
ATOM     11  S   UNL     1      29.469  14.448  23.410  1.00  0.00     0.239 S 
ATOM     12  C   UNL     1      27.272  16.042  23.861  1.00  0.00     0.205 C 
ATOM     13  O   UNL     1      30.730  14.939  23.938  1.00  0.00    -0.206 OA
ATOM     14  N   UNL     1      28.215  15.125  24.376  1.00  0.00    -0.243 N 
ATOM     15  O   UNL     1      29.121  13.065  23.318  1.00  0.00    -0.206 OA
ATOM     16  N   UNL     1      26.599  16.746  24.824  1.00  0.00    -0.369 N 
ATOM     17  C   UNL     1      27.578  16.252  20.309  1.00  0.00     0.044 C 
ATOM     18  C   UNL     1      28.349  14.832  25.817  1.00  0.00     0.167 C 
ATOM     19  H   UNL     1      25.921  17.410  24.564  1.00  0.00     0.159 HD
ATOM     20  H   UNL     1      26.795  16.589  25.776  1.00  0.00     0.159 HD
ENDBRANCH   1   8
BRANCH   3  21
ATOM     21  N   UNL     1      24.057  12.367  22.728  1.00  0.00    -0.321 N 
ATOM     22  C   UNL     1      22.727  12.503  22.372  1.00  0.00     0.274 C 
ATOM     23  O   UNL     1      22.325  12.956  21.308  1.00  0.00    -0.267 OA
ATOM     24  H   UNL     1      24.227  12.095  23.659  1.00  0.00     0.170 HD
BRANCH  22  25
ATOM     25  C   UNL     1      21.749  12.016  23.376  1.00  0.00     0.128 A 
ATOM     26  N   UNL     1      21.868  12.516  24.610  1.00  0.00    -0.248 NA
ATOM     27  C   UNL     1      20.778  11.102  23.007  1.00  0.00     0.037 A 
ATOM     28  C   UNL     1      20.997  12.086  25.538  1.00  0.00     0.151 A 
ATOM     29  C   UNL     1      19.891  10.683  23.983  1.00  0.00     0.043 A 
ATOM     30  C   UNL     1      20.000  11.175  25.269  1.00  0.00     0.141 A 
ATOM     31  F   UNL     1      19.156  10.805  26.247  1.00  0.00    -0.205 F 
ENDBRANCH  22  25
ENDBRANCH   3  21
TORSDOF 3
ENDMDL
MODEL 14
REMARK VINA RESULT:    -7.418      4.062      5.744
REMARK INTER + INTRA:          -9.029
REMARK INTER:                  -8.912
REMARK INTRA:                  -0.117
REMARK UNBOUND:                -0.310
REMARK SMILES CN1C(N)=N[C@](C)(c2cc(NC(=O)c3ccc(F)cn3)ccc2F)CS1(=O)=O
REMARK SMILES IDX 8 1 9 2 10 3 21 4 22 5 23 6 24 7 6 8 25 9 5 10 26 11 3 12
REMARK SMILES IDX 27 13 2 14 28 15 4 16 7 17 1 18 11 21 12 22 13 23 14 25
REMARK SMILES IDX 20 26 15 27 19 28 16 29 17 30 18 31
REMARK H PARENT 4 19 4 20 11 24
ROOT
ATOM      1  C   UNL     1      23.153  12.280  21.775  1.00  0.00     0.018 A 
ATOM      2  C   UNL     1      24.102  12.851  22.621  1.00  0.00     0.035 A 
ATOM      3  C   UNL     1      24.077  12.669  23.985  1.00  0.00     0.042 A 
ATOM      4  C   UNL     1      23.071  11.913  24.575  1.00  0.00     0.029 A 
ATOM      5  C   UNL     1      22.122  11.336  23.750  1.00  0.00     0.042 A 
ATOM      6  C   UNL     1      22.179  11.501  22.380  1.00  0.00     0.129 A 
ATOM      7  F   UNL     1      21.252  10.900  21.590  1.00  0.00    -0.207 F 
ENDROOT
BRANCH   1   8
ATOM      8  C   UNL     1      23.210  12.498  20.271  1.00  0.00     0.105 C 
ATOM      9  C   UNL     1      23.357  11.239  19.446  1.00  0.00     0.195 C 
ATOM     10  N   UNL     1      24.238  13.467  19.895  1.00  0.00    -0.240 NA
ATOM     11  S   UNL     1      24.903  10.439  19.793  1.00  0.00     0.239 S 
ATOM     12  C   UNL     1      25.486  13.128  19.785  1.00  0.00     0.205 C 
ATOM     13  O   UNL     1      25.268   9.705  18.594  1.00  0.00    -0.206 OA
ATOM     14  N   UNL     1      25.952  11.800  19.897  1.00  0.00    -0.243 N 
ATOM     15  O   UNL     1      24.927   9.886  21.111  1.00  0.00    -0.206 OA
ATOM     16  N   UNL     1      26.471  14.042  19.521  1.00  0.00    -0.369 N 
ATOM     17  C   UNL     1      21.915  13.181  19.821  1.00  0.00     0.044 C 
ATOM     18  C   UNL     1      27.386  11.447  19.894  1.00  0.00     0.167 C 
ATOM     19  H   UNL     1      26.244  14.995  19.425  1.00  0.00     0.159 HD
ATOM     20  H   UNL     1      27.405  13.746  19.426  1.00  0.00     0.159 HD
ENDBRANCH   1   8
BRANCH   3  21
ATOM     21  N   UNL     1      25.088  13.300  24.722  1.00  0.00    -0.321 N 
ATOM     22  C   UNL     1      26.421  13.455  24.388  1.00  0.00     0.274 C 
ATOM     23  O   UNL     1      26.971  12.938  23.425  1.00  0.00    -0.267 OA
ATOM     24  H   UNL     1      24.814  13.682  25.587  1.00  0.00     0.170 HD
BRANCH  22  25
ATOM     25  C   UNL     1      27.196  14.354  25.277  1.00  0.00     0.128 A 
ATOM     26  N   UNL     1      28.491  14.061  25.436  1.00  0.00    -0.248 NA
ATOM     27  C   UNL     1      26.573  15.433  25.881  1.00  0.00     0.037 A 
ATOM     28  C   UNL     1      29.212  14.859  26.240  1.00  0.00     0.151 A 
ATOM     29  C   UNL     1      27.344  16.241  26.699  1.00  0.00     0.043 A 
ATOM     30  C   UNL     1      28.681  15.951  26.888  1.00  0.00     0.141 A 
ATOM     31  F   UNL     1      29.471  16.711  27.666  1.00  0.00    -0.205 F 
ENDBRANCH  22  25
ENDBRANCH   3  21
TORSDOF 3
ENDMDL
MODEL 15
REMARK VINA RESULT:    -7.375      4.274      8.443
REMARK INTER + INTRA:          -8.979
REMARK INTER:                  -8.961
REMARK INTRA:                  -0.018
REMARK UNBOUND:                -0.310
REMARK SMILES CN1C(N)=N[C@](C)(c2cc(NC(=O)c3ccc(F)cn3)ccc2F)CS1(=O)=O
REMARK SMILES IDX 8 1 9 2 10 3 21 4 22 5 23 6 24 7 6 8 25 9 5 10 26 11 3 12
REMARK SMILES IDX 27 13 2 14 28 15 4 16 7 17 1 18 11 21 12 22 13 23 14 25
REMARK SMILES IDX 20 26 15 27 19 28 16 29 17 30 18 31
REMARK H PARENT 4 19 4 20 11 24
ROOT
ATOM      1  C   UNL     1      22.192  10.721  21.963  1.00  0.00     0.018 A 
ATOM      2  C   UNL     1      21.483  11.757  22.569  1.00  0.00     0.035 A 
ATOM      3  C   UNL     1      21.501  11.964  23.930  1.00  0.00     0.042 A 
ATOM      4  C   UNL     1      22.223  11.116  24.761  1.00  0.00     0.029 A 
ATOM      5  C   UNL     1      22.935  10.084  24.176  1.00  0.00     0.042 A 
ATOM      6  C   UNL     1      22.934   9.908  22.807  1.00  0.00     0.129 A 
ATOM      7  F   UNL     1      23.665   8.905  22.256  1.00  0.00    -0.207 F 
ENDROOT
BRANCH   1   8
ATOM      8  C   UNL     1      22.154  10.520  20.456  1.00  0.00     0.105 C 
ATOM      9  C   UNL     1      23.459  10.069  19.837  1.00  0.00     0.195 C 
ATOM     10  N   UNL     1      21.649  11.700  19.758  1.00  0.00    -0.240 NA
ATOM     11  S   UNL     1      24.713  11.308  20.044  1.00  0.00     0.239 S 
ATOM     12  C   UNL     1      22.413  12.716  19.495  1.00  0.00     0.205 C 
ATOM     13  O   UNL     1      25.640  11.148  18.938  1.00  0.00    -0.206 OA
ATOM     14  N   UNL     1      23.803  12.738  19.744  1.00  0.00    -0.243 N 
ATOM     15  O   UNL     1      25.108  11.435  21.412  1.00  0.00    -0.206 OA
ATOM     16  N   UNL     1      21.932  13.862  18.922  1.00  0.00    -0.369 N 
ATOM     17  C   UNL     1      21.108   9.452  20.126  1.00  0.00     0.044 C 
ATOM     18  C   UNL     1      24.635  13.944  19.556  1.00  0.00     0.167 C 
ATOM     19  H   UNL     1      20.974  13.943  18.710  1.00  0.00     0.159 HD
ATOM     20  H   UNL     1      22.545  14.607  18.720  1.00  0.00     0.159 HD
ENDBRANCH   1   8
BRANCH   3  21
ATOM     21  N   UNL     1      20.743  13.040  24.411  1.00  0.00    -0.321 N 
ATOM     22  C   UNL     1      19.506  13.008  25.030  1.00  0.00     0.274 C 
ATOM     23  O   UNL     1      18.801  12.013  25.144  1.00  0.00    -0.267 OA
ATOM     24  H   UNL     1      21.142  13.932  24.294  1.00  0.00     0.170 HD
BRANCH  22  25
ATOM     25  C   UNL     1      19.058  14.294  25.616  1.00  0.00     0.128 A 
ATOM     26  N   UNL     1      19.860  14.837  26.539  1.00  0.00    -0.248 NA
ATOM     27  C   UNL     1      17.873  14.870  25.193  1.00  0.00     0.037 A 
ATOM     28  C   UNL     1      19.472  16.000  27.087  1.00  0.00     0.151 A 
ATOM     29  C   UNL     1      17.504  16.072  25.772  1.00  0.00     0.043 A 
ATOM     30  C   UNL     1      18.309  16.647  26.737  1.00  0.00     0.141 A 
ATOM     31  F   UNL     1      17.996  17.816  27.320  1.00  0.00    -0.205 F 
ENDBRANCH  22  25
ENDBRANCH   3  21
TORSDOF 3
ENDMDL
MODEL 16
REMARK VINA RESULT:    -7.310      5.579      8.457
REMARK INTER + INTRA:          -8.903
REMARK INTER:                  -9.233
REMARK INTRA:                   0.330
REMARK UNBOUND:                -0.310
REMARK SMILES CN1C(N)=N[C@](C)(c2cc(NC(=O)c3ccc(F)cn3)ccc2F)CS1(=O)=O
REMARK SMILES IDX 8 1 9 2 10 3 21 4 22 5 23 6 24 7 6 8 25 9 5 10 26 11 3 12
REMARK SMILES IDX 27 13 2 14 28 15 4 16 7 17 1 18 11 21 12 22 13 23 14 25
REMARK SMILES IDX 20 26 15 27 19 28 16 29 17 30 18 31
REMARK H PARENT 4 19 4 20 11 24
ROOT
ATOM      1  C   UNL     1      17.821  13.429  26.041  1.00  0.00     0.018 A 
ATOM      2  C   UNL     1      18.661  13.194  24.954  1.00  0.00     0.035 A 
ATOM      3  C   UNL     1      19.961  12.768  25.106  1.00  0.00     0.042 A 
ATOM      4  C   UNL     1      20.494  12.575  26.374  1.00  0.00     0.029 A 
ATOM      5  C   UNL     1      19.673  12.800  27.466  1.00  0.00     0.042 A 
ATOM      6  C   UNL     1      18.362  13.197  27.297  1.00  0.00     0.129 A 
ATOM      7  F   UNL     1      17.569  13.383  28.383  1.00  0.00    -0.207 F 
ENDROOT
BRANCH   1   8
ATOM      8  C   UNL     1      16.388  13.897  25.840  1.00  0.00     0.105 C 
ATOM      9  C   UNL     1      16.190  14.890  24.717  1.00  0.00     0.195 C 
ATOM     10  N   UNL     1      15.801  14.414  27.076  1.00  0.00    -0.240 NA
ATOM     11  S   UNL     1      17.060  16.400  25.053  1.00  0.00     0.239 S 
ATOM     12  C   UNL     1      16.026  15.625  27.483  1.00  0.00     0.205 C 
ATOM     13  O   UNL     1      16.340  17.455  24.363  1.00  0.00    -0.206 OA
ATOM     14  N   UNL     1      16.745  16.584  26.736  1.00  0.00    -0.243 N 
ATOM     15  O   UNL     1      18.477  16.218  24.988  1.00  0.00    -0.206 OA
ATOM     16  N   UNL     1      15.556  16.093  28.681  1.00  0.00    -0.369 N 
ATOM     17  C   UNL     1      15.511  12.683  25.526  1.00  0.00     0.044 C 
ATOM     18  C   UNL     1      17.099  17.916  27.265  1.00  0.00     0.167 C 
ATOM     19  H   UNL     1      15.042  15.498  29.273  1.00  0.00     0.159 HD
ATOM     20  H   UNL     1      15.731  17.024  28.949  1.00  0.00     0.159 HD
ENDBRANCH   1   8
BRANCH   3  21
ATOM     21  N   UNL     1      20.698  12.571  23.931  1.00  0.00    -0.321 N 
ATOM     22  C   UNL     1      20.715  11.462  23.105  1.00  0.00     0.274 C 
ATOM     23  O   UNL     1      20.166  10.395  23.347  1.00  0.00    -0.267 OA
ATOM     24  H   UNL     1      21.279  13.319  23.659  1.00  0.00     0.170 HD
BRANCH  22  25
ATOM     25  C   UNL     1      21.437  11.639  21.822  1.00  0.00     0.128 A 
ATOM     26  N   UNL     1      21.292  10.663  20.920  1.00  0.00    -0.248 NA
ATOM     27  C   UNL     1      22.200  12.775  21.609  1.00  0.00     0.037 A 
ATOM     28  C   UNL     1      21.941  10.799  19.752  1.00  0.00     0.151 A 
ATOM     29  C   UNL     1      22.850  12.889  20.393  1.00  0.00     0.043 A 
ATOM     30  C   UNL     1      22.726  11.888  19.449  1.00  0.00     0.141 A 
ATOM     31  F   UNL     1      23.332  11.959  18.252  1.00  0.00    -0.205 F 
ENDBRANCH  22  25
ENDBRANCH   3  21
TORSDOF 3
ENDMDL
MODEL 17
REMARK VINA RESULT:    -7.288      5.485      7.992
REMARK INTER + INTRA:          -8.876
REMARK INTER:                  -8.461
REMARK INTRA:                  -0.416
REMARK UNBOUND:                -0.310
REMARK SMILES CN1C(N)=N[C@](C)(c2cc(NC(=O)c3ccc(F)cn3)ccc2F)CS1(=O)=O
REMARK SMILES IDX 8 1 9 2 10 3 21 4 22 5 23 6 24 7 6 8 25 9 5 10 26 11 3 12
REMARK SMILES IDX 27 13 2 14 28 15 4 16 7 17 1 18 11 21 12 22 13 23 14 25
REMARK SMILES IDX 20 26 15 27 19 28 16 29 17 30 18 31
REMARK H PARENT 4 19 4 20 11 24
ROOT
ATOM      1  C   UNL     1      26.821  12.477  20.035  1.00  0.00     0.018 A 
ATOM      2  C   UNL     1      27.144  13.368  19.012  1.00  0.00     0.035 A 
ATOM      3  C   UNL     1      26.184  14.032  18.283  1.00  0.00     0.042 A 
ATOM      4  C   UNL     1      24.835  13.815  18.535  1.00  0.00     0.029 A 
ATOM      5  C   UNL     1      24.496  12.937  19.549  1.00  0.00     0.042 A 
ATOM      6  C   UNL     1      25.470  12.302  20.293  1.00  0.00     0.129 A 
ATOM      7  F   UNL     1      25.111  11.468  21.302  1.00  0.00    -0.207 F 
ENDROOT
BRANCH   1   8
ATOM      8  C   UNL     1      27.906  11.761  20.824  1.00  0.00     0.105 C 
ATOM      9  C   UNL     1      27.759  11.835  22.328  1.00  0.00     0.195 C 
ATOM     10  N   UNL     1      29.246  12.190  20.429  1.00  0.00    -0.240 NA
ATOM     11  S   UNL     1      27.898  13.513  22.890  1.00  0.00     0.239 S 
ATOM     12  C   UNL     1      29.778  13.279  20.893  1.00  0.00     0.205 C 
ATOM     13  O   UNL     1      28.404  13.453  24.249  1.00  0.00    -0.206 OA
ATOM     14  N   UNL     1      29.182  14.080  21.893  1.00  0.00    -0.243 N 
ATOM     15  O   UNL     1      26.776  14.300  22.483  1.00  0.00    -0.206 OA
ATOM     16  N   UNL     1      30.994  13.738  20.465  1.00  0.00    -0.369 N 
ATOM     17  C   UNL     1      27.895  10.277  20.445  1.00  0.00     0.044 C 
ATOM     18  C   UNL     1      29.738  15.379  22.320  1.00  0.00     0.167 C 
ATOM     19  H   UNL     1      31.489  13.247  19.769  1.00  0.00     0.159 HD
ATOM     20  H   UNL     1      31.375  14.559  20.853  1.00  0.00     0.159 HD
ENDBRANCH   1   8
BRANCH   3  21
ATOM     21  N   UNL     1      26.643  14.897  17.281  1.00  0.00    -0.321 N 
ATOM     22  C   UNL     1      27.177  16.166  17.423  1.00  0.00     0.274 C 
ATOM     23  O   UNL     1      27.215  16.801  18.468  1.00  0.00    -0.267 OA
ATOM     24  H   UNL     1      26.578  14.559  16.359  1.00  0.00     0.170 HD
BRANCH  22  25
ATOM     25  C   UNL     1      27.767  16.745  16.192  1.00  0.00     0.128 A 
ATOM     26  N   UNL     1      27.384  17.987  15.878  1.00  0.00    -0.248 NA
ATOM     27  C   UNL     1      28.669  16.008  15.445  1.00  0.00     0.037 A 
ATOM     28  C   UNL     1      27.902  18.531  14.765  1.00  0.00     0.151 A 
ATOM     29  C   UNL     1      29.190  16.598  14.307  1.00  0.00     0.043 A 
ATOM     30  C   UNL     1      28.801  17.876  13.955  1.00  0.00     0.141 A 
ATOM     31  F   UNL     1      29.287  18.493  12.864  1.00  0.00    -0.205 F 
ENDBRANCH  22  25
ENDBRANCH   3  21
TORSDOF 3
ENDMDL
MODEL 18
REMARK VINA RESULT:    -7.223      3.860      7.720
REMARK INTER + INTRA:          -8.800
REMARK INTER:                  -9.180
REMARK INTRA:                   0.380
REMARK UNBOUND:                -0.310
REMARK SMILES CN1C(N)=N[C@](C)(c2cc(NC(=O)c3ccc(F)cn3)ccc2F)CS1(=O)=O
REMARK SMILES IDX 8 1 9 2 10 3 21 4 22 5 23 6 24 7 6 8 25 9 5 10 26 11 3 12
REMARK SMILES IDX 27 13 2 14 28 15 4 16 7 17 1 18 11 21 12 22 13 23 14 25
REMARK SMILES IDX 20 26 15 27 19 28 16 29 17 30 18 31
REMARK H PARENT 4 19 4 20 11 24
ROOT
ATOM      1  C   UNL     1      28.014  13.312  20.716  1.00  0.00     0.018 A 
ATOM      2  C   UNL     1      26.735  12.853  21.028  1.00  0.00     0.035 A 
ATOM      3  C   UNL     1      25.617  13.258  20.333  1.00  0.00     0.042 A 
ATOM      4  C   UNL     1      25.729  14.172  19.293  1.00  0.00     0.029 A 
ATOM      5  C   UNL     1      26.991  14.636  18.968  1.00  0.00     0.042 A 
ATOM      6  C   UNL     1      28.107  14.196  19.652  1.00  0.00     0.129 A 
ATOM      7  F   UNL     1      29.338  14.643  19.294  1.00  0.00    -0.207 F 
ENDROOT
BRANCH   1   8
ATOM      8  C   UNL     1      29.229  12.843  21.501  1.00  0.00     0.105 C 
ATOM      9  C   UNL     1      28.982  12.581  22.970  1.00  0.00     0.195 C 
ATOM     10  N   UNL     1      30.369  13.743  21.336  1.00  0.00    -0.240 NA
ATOM     11  S   UNL     1      28.521  14.078  23.804  1.00  0.00     0.239 S 
ATOM     12  C   UNL     1      30.480  14.836  22.026  1.00  0.00     0.205 C 
ATOM     13  O   UNL     1      28.940  13.928  25.186  1.00  0.00    -0.206 OA
ATOM     14  N   UNL     1      29.596  15.202  23.065  1.00  0.00    -0.243 N 
ATOM     15  O   UNL     1      27.225  14.529  23.402  1.00  0.00    -0.206 OA
ATOM     16  N   UNL     1      31.495  15.731  21.819  1.00  0.00    -0.369 N 
ATOM     17  C   UNL     1      29.736  11.533  20.891  1.00  0.00     0.044 C 
ATOM     18  C   UNL     1      29.661  16.505  23.756  1.00  0.00     0.167 C 
ATOM     19  H   UNL     1      32.163  15.563  21.116  1.00  0.00     0.159 HD
ATOM     20  H   UNL     1      31.557  16.542  22.375  1.00  0.00     0.159 HD
ENDBRANCH   1   8
BRANCH   3  21
ATOM     21  N   UNL     1      24.391  12.724  20.750  1.00  0.00    -0.321 N 
ATOM     22  C   UNL     1      23.565  11.844  20.073  1.00  0.00     0.274 C 
ATOM     23  O   UNL     1      23.721  11.483  18.914  1.00  0.00    -0.267 OA
ATOM     24  H   UNL     1      24.077  13.011  21.638  1.00  0.00     0.170 HD
BRANCH  22  25
ATOM     25  C   UNL     1      22.438  11.297  20.866  1.00  0.00     0.128 A 
ATOM     26  N   UNL     1      21.986  10.093  20.501  1.00  0.00    -0.248 NA
ATOM     27  C   UNL     1      21.920  12.024  21.924  1.00  0.00     0.037 A 
ATOM     28  C   UNL     1      20.962   9.578  21.202  1.00  0.00     0.151 A 
ATOM     29  C   UNL     1      20.870  11.465  22.630  1.00  0.00     0.043 A 
ATOM     30  C   UNL     1      20.377  10.227  22.266  1.00  0.00     0.141 A 
ATOM     31  F   UNL     1      19.365   9.641  22.927  1.00  0.00    -0.205 F 
ENDBRANCH  22  25
ENDBRANCH   3  21
TORSDOF 3
ENDMDL
MODEL 19
REMARK VINA RESULT:    -7.221      4.516      7.883
REMARK INTER + INTRA:          -8.798
REMARK INTER:                  -8.732
REMARK INTRA:                  -0.066
REMARK UNBOUND:                -0.310
REMARK SMILES CN1C(N)=N[C@](C)(c2cc(NC(=O)c3ccc(F)cn3)ccc2F)CS1(=O)=O
REMARK SMILES IDX 8 1 9 2 10 3 21 4 22 5 23 6 24 7 6 8 25 9 5 10 26 11 3 12
REMARK SMILES IDX 27 13 2 14 28 15 4 16 7 17 1 18 11 21 12 22 13 23 14 25
REMARK SMILES IDX 20 26 15 27 19 28 16 29 17 30 18 31
REMARK H PARENT 4 19 4 20 11 24
ROOT
ATOM      1  C   UNL     1      27.404  15.467  19.711  1.00  0.00     0.018 A 
ATOM      2  C   UNL     1      26.313  14.745  20.193  1.00  0.00     0.035 A 
ATOM      3  C   UNL     1      25.546  13.940  19.380  1.00  0.00     0.042 A 
ATOM      4  C   UNL     1      25.828  13.838  18.024  1.00  0.00     0.029 A 
ATOM      5  C   UNL     1      26.909  14.546  17.529  1.00  0.00     0.042 A 
ATOM      6  C   UNL     1      27.689  15.324  18.362  1.00  0.00     0.129 A 
ATOM      7  F   UNL     1      28.762  15.985  17.857  1.00  0.00    -0.207 F 
ENDROOT
BRANCH   1   8
ATOM      8  C   UNL     1      28.234  16.345  20.635  1.00  0.00     0.105 C 
ATOM      9  C   UNL     1      29.681  15.931  20.783  1.00  0.00     0.195 C 
ATOM     10  N   UNL     1      27.616  16.493  21.952  1.00  0.00    -0.240 NA
ATOM     11  S   UNL     1      29.800  14.330  21.540  1.00  0.00     0.239 S 
ATOM     12  C   UNL     1      27.747  15.587  22.872  1.00  0.00     0.205 C 
ATOM     13  O   UNL     1      31.077  14.292  22.230  1.00  0.00    -0.206 OA
ATOM     14  N   UNL     1      28.574  14.450  22.743  1.00  0.00    -0.243 N 
ATOM     15  O   UNL     1      29.326  13.299  20.670  1.00  0.00    -0.206 OA
ATOM     16  N   UNL     1      27.102  15.671  24.077  1.00  0.00    -0.369 N 
ATOM     17  C   UNL     1      28.230  17.776  20.092  1.00  0.00     0.044 C 
ATOM     18  C   UNL     1      28.616  13.367  23.745  1.00  0.00     0.167 C 
ATOM     19  H   UNL     1      26.502  16.430  24.262  1.00  0.00     0.159 HD
ATOM     20  H   UNL     1      27.239  14.974  24.758  1.00  0.00     0.159 HD
ENDBRANCH   1   8
BRANCH   3  21
ATOM     21  N   UNL     1      24.477  13.270  19.989  1.00  0.00    -0.321 N 
ATOM     22  C   UNL     1      23.176  13.144  19.536  1.00  0.00     0.274 C 
ATOM     23  O   UNL     1      22.709  13.722  18.564  1.00  0.00    -0.267 OA
ATOM     24  H   UNL     1      24.677  12.834  20.849  1.00  0.00     0.170 HD
BRANCH  22  25
ATOM     25  C   UNL     1      22.329  12.195  20.300  1.00  0.00     0.128 A 
ATOM     26  N   UNL     1      22.115  11.003  19.734  1.00  0.00    -0.248 NA
ATOM     27  C   UNL     1      21.819  12.563  21.533  1.00  0.00     0.037 A 
ATOM     28  C   UNL     1      21.347  10.129  20.405  1.00  0.00     0.151 A 
ATOM     29  C   UNL     1      21.037  11.639  22.203  1.00  0.00     0.043 A 
ATOM     30  C   UNL     1      20.791  10.404  21.633  1.00  0.00     0.141 A 
ATOM     31  F   UNL     1      20.045   9.472  22.250  1.00  0.00    -0.205 F 
ENDBRANCH  22  25
ENDBRANCH   3  21
TORSDOF 3
ENDMDL
MODEL 20
REMARK VINA RESULT:    -7.064      3.436      7.699
REMARK INTER + INTRA:          -8.613
REMARK INTER:                  -8.552
REMARK INTRA:                  -0.061
REMARK UNBOUND:                -0.310
REMARK SMILES CN1C(N)=N[C@](C)(c2cc(NC(=O)c3ccc(F)cn3)ccc2F)CS1(=O)=O
REMARK SMILES IDX 8 1 9 2 10 3 21 4 22 5 23 6 24 7 6 8 25 9 5 10 26 11 3 12
REMARK SMILES IDX 27 13 2 14 28 15 4 16 7 17 1 18 11 21 12 22 13 23 14 25
REMARK SMILES IDX 20 26 15 27 19 28 16 29 17 30 18 31
REMARK H PARENT 4 19 4 20 11 24
ROOT
ATOM      1  C   UNL     1      27.755  13.024  22.474  1.00  0.00     0.018 A 
ATOM      2  C   UNL     1      26.419  12.688  22.690  1.00  0.00     0.035 A 
ATOM      3  C   UNL     1      25.733  13.085  23.815  1.00  0.00     0.042 A 
ATOM      4  C   UNL     1      26.369  13.829  24.801  1.00  0.00     0.029 A 
ATOM      5  C   UNL     1      27.694  14.175  24.602  1.00  0.00     0.042 A 
ATOM      6  C   UNL     1      28.361  13.796  23.453  1.00  0.00     0.129 A 
ATOM      7  F   UNL     1      29.652  14.173  23.268  1.00  0.00    -0.207 F 
ENDROOT
BRANCH   1   8
ATOM      8  C   UNL     1      28.485  12.572  21.218  1.00  0.00     0.105 C 
ATOM      9  C   UNL     1      29.031  13.690  20.358  1.00  0.00     0.195 C 
ATOM     10  N   UNL     1      27.673  11.666  20.408  1.00  0.00    -0.240 NA
ATOM     11  S   UNL     1      27.712  14.689  19.716  1.00  0.00     0.239 S 
ATOM     12  C   UNL     1      26.766  12.108  19.592  1.00  0.00     0.205 C 
ATOM     13  O   UNL     1      28.190  15.252  18.466  1.00  0.00    -0.206 OA
ATOM     14  N   UNL     1      26.555  13.478  19.320  1.00  0.00    -0.243 N 
ATOM     15  O   UNL     1      27.075  15.447  20.747  1.00  0.00    -0.206 OA
ATOM     16  N   UNL     1      25.939  11.269  18.894  1.00  0.00    -0.369 N 
ATOM     17  C   UNL     1      29.673  11.697  21.625  1.00  0.00     0.044 C 
ATOM     18  C   UNL     1      25.440  13.970  18.487  1.00  0.00     0.167 C 
ATOM     19  H   UNL     1      26.010  10.295  19.016  1.00  0.00     0.159 HD
ATOM     20  H   UNL     1      25.274  11.640  18.270  1.00  0.00     0.159 HD
ENDBRANCH   1   8
BRANCH   3  21
ATOM     21  N   UNL     1      24.396  12.679  23.911  1.00  0.00    -0.321 N 
ATOM     22  C   UNL     1      23.465  12.546  22.896  1.00  0.00     0.274 C 
ATOM     23  O   UNL     1      23.635  12.895  21.735  1.00  0.00    -0.267 OA
ATOM     24  H   UNL     1      24.078  12.459  24.817  1.00  0.00     0.170 HD
BRANCH  22  25
ATOM     25  C   UNL     1      22.193  11.892  23.285  1.00  0.00     0.128 A 
ATOM     26  N   UNL     1      21.705  12.213  24.488  1.00  0.00    -0.248 NA
ATOM     27  C   UNL     1      21.573  11.011  22.415  1.00  0.00     0.037 A 
ATOM     28  C   UNL     1      20.555  11.630  24.864  1.00  0.00     0.151 A 
ATOM     29  C   UNL     1      20.387  10.431  22.829  1.00  0.00     0.043 A 
ATOM     30  C   UNL     1      19.868  10.738  24.072  1.00  0.00     0.141 A 
ATOM     31  F   UNL     1      18.715  10.207  24.513  1.00  0.00    -0.205 F 
ENDBRANCH  22  25
ENDBRANCH   3  21
TORSDOF 3
ENDMDL
