MODEL 1
REMARK VINA RESULT:   -13.416      0.000      0.000
REMARK INTER + INTRA:         -16.348
REMARK INTER:                 -16.161
REMARK INTRA:                  -0.187
REMARK UNBOUND:                -0.187
REMARK SMILES CC1(C)CCC(C)(C)c2cc(NC(=O)c3ccc(C(=O)O)cc3)ccc21
REMARK SMILES IDX 15 1 16 2 23 3 17 4 22 5 18 6 13 7 14 8 12 9 11 11 10 12
REMARK SMILES IDX 24 13 9 14 25 15 6 16 26 17 5 18 2 19 4 20 7 21 8 22 1 23
REMARK SMILES IDX 3 24 19 25 20 26 21 27
REMARK H PARENT 12 10 21 28
ROOT
ATOM      1  C   UNL     1      40.679  23.151 101.988  1.00  0.00     0.040 A 
ATOM      2  C   UNL     1      39.788  22.562 102.860  1.00  0.00     0.015 A 
ATOM      3  C   UNL     1      40.583  24.478 101.621  1.00  0.00     0.015 A 
ATOM      4  C   UNL     1      38.754  23.334 103.390  1.00  0.00     0.016 A 
ATOM      5  C   UNL     1      39.550  25.250 102.151  1.00  0.00     0.016 A 
ATOM      6  C   UNL     1      38.635  24.678 103.036  1.00  0.00     0.059 A 
ENDROOT
BRANCH   1   7
ATOM      7  C   UNL     1      41.779  22.328 101.423  1.00  0.00     0.255 C 
ATOM      8  O   UNL     1      41.677  21.108 101.499  1.00  0.00    -0.269 OA
ATOM      9  N   UNL     1      42.825  23.048 100.831  1.00  0.00    -0.322 N 
ATOM     10  H   UNL     1      42.798  24.062 100.881  1.00  0.00     0.170 HD
BRANCH   9  11
ATOM     11  C   UNL     1      43.967  22.547 100.205  1.00  0.00     0.041 A 
ATOM     12  C   UNL     1      43.905  21.352  99.490  1.00  0.00     0.030 A 
ATOM     13  C   UNL     1      45.167  23.232 100.294  1.00  0.00     0.026 A 
ATOM     14  C   UNL     1      45.043  20.810  98.848  1.00  0.00    -0.037 A 
ATOM     15  C   UNL     1      46.298  22.730  99.655  1.00  0.00     0.007 A 
ATOM     16  C   UNL     1      44.906  19.487  98.082  1.00  0.00    -0.010 C 
ATOM     17  C   UNL     1      46.260  21.531  98.906  1.00  0.00    -0.038 A 
ATOM     18  C   UNL     1      46.286  18.882  97.741  1.00  0.00     0.012 C 
ATOM     19  C   UNL     1      47.541  21.038  98.222  1.00  0.00    -0.010 C 
ATOM     20  C   UNL     1      47.245  19.925  97.193  1.00  0.00     0.012 C 
ATOM     21  C   UNL     1      44.110  19.747  96.783  1.00  0.00     0.016 C 
ATOM     22  C   UNL     1      44.152  18.418  98.908  1.00  0.00     0.016 C 
ATOM     23  C   UNL     1      48.507  20.507  99.305  1.00  0.00     0.016 C 
ATOM     24  C   UNL     1      48.256  22.170  97.447  1.00  0.00     0.016 C 
ENDBRANCH   9  11
ENDBRANCH   1   7
BRANCH   6  25
ATOM     25  C   UNL     1      37.558  25.484 103.589  1.00  0.00     0.335 C 
ATOM     26  O   UNL     1      36.492  25.046 104.034  1.00  0.00    -0.246 OA
BRANCH  25  27
ATOM     27  O   UNL     1      37.843  26.815 103.572  1.00  0.00    -0.478 OA
ATOM     28  H   UNL     1      37.506  27.250 102.759  1.00  0.00     0.297 HD
ENDBRANCH  25  27
ENDBRANCH   6  25
TORSDOF 4
ENDMDL
MODEL 2
REMARK VINA RESULT:   -12.482      1.261      2.767
REMARK INTER + INTRA:         -15.223
REMARK INTER:                 -15.120
REMARK INTRA:                  -0.102
REMARK UNBOUND:                -0.187
REMARK SMILES CC1(C)CCC(C)(C)c2cc(NC(=O)c3ccc(C(=O)O)cc3)ccc21
REMARK SMILES IDX 15 1 16 2 23 3 17 4 22 5 18 6 13 7 14 8 12 9 11 11 10 12
REMARK SMILES IDX 24 13 9 14 25 15 6 16 26 17 5 18 2 19 4 20 7 21 8 22 1 23
REMARK SMILES IDX 3 24 19 25 20 26 21 27
REMARK H PARENT 12 10 21 28
ROOT
ATOM      1  C   UNL     1      40.920  23.478 101.873  1.00  0.00     0.040 A 
ATOM      2  C   UNL     1      40.113  22.778 102.747  1.00  0.00     0.015 A 
ATOM      3  C   UNL     1      40.662  24.786 101.519  1.00  0.00     0.015 A 
ATOM      4  C   UNL     1      38.998  23.415 103.290  1.00  0.00     0.016 A 
ATOM      5  C   UNL     1      39.547  25.423 102.064  1.00  0.00     0.016 A 
ATOM      6  C   UNL     1      38.715  24.737 102.949  1.00  0.00     0.059 A 
ENDROOT
BRANCH   1   7
ATOM      7  C   UNL     1      42.108  22.799 101.294  1.00  0.00     0.255 C 
ATOM      8  O   UNL     1      43.198  23.346 101.423  1.00  0.00    -0.269 OA
ATOM      9  N   UNL     1      41.852  21.570 100.672  1.00  0.00    -0.322 N 
ATOM     10  H   UNL     1      40.888  21.258 100.600  1.00  0.00     0.170 HD
BRANCH   9  11
ATOM     11  C   UNL     1      42.767  20.706 100.068  1.00  0.00     0.041 A 
ATOM     12  C   UNL     1      43.946  21.207  99.520  1.00  0.00     0.030 A 
ATOM     13  C   UNL     1      42.506  19.347 100.008  1.00  0.00     0.026 A 
ATOM     14  C   UNL     1      44.893  20.364  98.894  1.00  0.00    -0.037 A 
ATOM     15  C   UNL     1      43.432  18.492  99.415  1.00  0.00     0.007 A 
ATOM     16  C   UNL     1      46.168  20.984  98.305  1.00  0.00    -0.010 C 
ATOM     17  C   UNL     1      44.645  18.970  98.869  1.00  0.00    -0.038 A 
ATOM     18  C   UNL     1      46.909  19.991  97.383  1.00  0.00     0.012 C 
ATOM     19  C   UNL     1      45.623  17.973  98.235  1.00  0.00    -0.010 C 
ATOM     20  C   UNL     1      47.011  18.607  98.001  1.00  0.00     0.012 C 
ATOM     21  C   UNL     1      47.092  21.412  99.467  1.00  0.00     0.016 C 
ATOM     22  C   UNL     1      45.858  22.232  97.445  1.00  0.00     0.016 C 
ATOM     23  C   UNL     1      45.034  17.488  96.892  1.00  0.00     0.016 C 
ATOM     24  C   UNL     1      45.853  16.737  99.138  1.00  0.00     0.016 C 
ENDBRANCH   9  11
ENDBRANCH   1   7
BRANCH   6  25
ATOM     25  C   UNL     1      37.552  25.403 103.516  1.00  0.00     0.335 C 
ATOM     26  O   UNL     1      36.554  24.834 103.972  1.00  0.00    -0.246 OA
BRANCH  25  27
ATOM     27  O   UNL     1      37.669  26.758 103.500  1.00  0.00    -0.478 OA
ATOM     28  H   UNL     1      38.051  27.102 104.337  1.00  0.00     0.297 HD
ENDBRANCH  25  27
ENDBRANCH   6  25
TORSDOF 4
ENDMDL
