MODEL 1
REMARK VINA RESULT:   -10.524      0.000      0.000
REMARK INTER + INTRA:         -13.199
REMARK INTER:                 -12.370
REMARK INTRA:                  -0.829
REMARK UNBOUND:                -0.829
REMARK SMILES NC(=O)c1cccc2cn(-c3ccc([C@@H]4CCCNC4)cc3)nc12
REMARK SMILES IDX 10 1 23 2 8 3 9 4 24 5 4 6 7 7 5 8 6 9 2 10 3 11 1 12 11 15
REMARK SMILES IDX 12 16 22 17 13 18 21 19 14 20 15 21 16 22 20 23 17 24 19 25
REMARK SMILES IDX 18 26
REMARK H PARENT 1 13 1 14 19 27
ROOT
ATOM      1  N   UNL     1       5.549   3.457  40.447  1.00  0.00    -0.240 N 
ATOM      2  N   UNL     1       4.766   3.428  39.351  1.00  0.00    -0.167 NA
ATOM      3  C   UNL     1       5.290   5.548  39.977  1.00  0.00     0.021 A 
ATOM      4  C   UNL     1       5.896   4.708  40.869  1.00  0.00     0.123 A 
ATOM      5  C   UNL     1       4.584   4.722  39.029  1.00  0.00     0.105 A 
ATOM      6  C   UNL     1       3.854   5.304  37.976  1.00  0.00     0.067 A 
ATOM      7  C   UNL     1       5.357   6.935  39.998  1.00  0.00     0.012 A 
ATOM      8  C   UNL     1       3.902   6.715  37.970  1.00  0.00     0.016 A 
ATOM      9  C   UNL     1       4.619   7.491  38.935  1.00  0.00     0.002 A 
ENDROOT
BRANCH   6  10
ATOM     10  C   UNL     1       3.124   4.537  36.990  1.00  0.00     0.250 C 
ATOM     11  O   UNL     1       2.052   4.948  36.503  1.00  0.00    -0.269 OA
ATOM     12  N   UNL     1       3.663   3.318  36.578  1.00  0.00    -0.366 N 
ATOM     13  H   UNL     1       4.533   2.941  36.938  1.00  0.00     0.159 HD
ATOM     14  H   UNL     1       3.183   2.754  35.884  1.00  0.00     0.159 HD
ENDBRANCH   6  10
BRANCH   1  15
ATOM     15  C   UNL     1       5.936   2.276  41.053  1.00  0.00     0.065 A 
ATOM     16  C   UNL     1       6.361   1.200  40.275  1.00  0.00     0.028 A 
ATOM     17  C   UNL     1       5.903   2.162  42.444  1.00  0.00     0.028 A 
ATOM     18  C   UNL     1       6.752   0.009  40.887  1.00  0.00     0.006 A 
ATOM     19  C   UNL     1       6.294   0.972  43.055  1.00  0.00     0.006 A 
ATOM     20  C   UNL     1       6.718  -0.106  42.277  1.00  0.00    -0.043 A 
BRANCH  20  21
ATOM     21  C   UNL     1       7.142  -1.403  42.943  1.00  0.00     0.033 C 
ATOM     22  C   UNL     1       7.938  -1.148  44.233  1.00  0.00     0.011 C 
ATOM     23  C   UNL     1       7.935  -2.312  41.985  1.00  0.00     0.089 C 
ATOM     24  C   UNL     1       8.390  -2.470  44.848  1.00  0.00     0.016 C 
ATOM     25  N   UNL     1       8.311  -3.570  42.636  1.00  0.00    -0.316 NA
ATOM     26  C   UNL     1       9.127  -3.334  43.827  1.00  0.00     0.081 C 
ATOM     27  H   UNL     1       8.836  -4.144  41.977  1.00  0.00     0.122 HD
ENDBRANCH  20  21
ENDBRANCH   1  15
TORSDOF 3
ENDMDL
MODEL 2
REMARK VINA RESULT:    -9.889      3.548      4.461
REMARK INTER + INTRA:         -12.452
REMARK INTER:                 -11.643
REMARK INTRA:                  -0.809
REMARK UNBOUND:                -0.829
REMARK SMILES NC(=O)c1cccc2cn(-c3ccc([C@@H]4CCCNC4)cc3)nc12
REMARK SMILES IDX 10 1 23 2 8 3 9 4 24 5 4 6 7 7 5 8 6 9 2 10 3 11 1 12 11 15
REMARK SMILES IDX 12 16 22 17 13 18 21 19 14 20 15 21 16 22 20 23 17 24 19 25
REMARK SMILES IDX 18 26
REMARK H PARENT 1 13 1 14 19 27
ROOT
ATOM      1  N   UNL     1       5.235   2.056  39.012  1.00  0.00    -0.240 N 
ATOM      2  N   UNL     1       4.529   3.003  38.364  1.00  0.00    -0.167 NA
ATOM      3  C   UNL     1       5.589   3.825  40.197  1.00  0.00     0.021 A 
ATOM      4  C   UNL     1       5.894   2.495  40.124  1.00  0.00     0.123 A 
ATOM      5  C   UNL     1       4.728   4.125  39.079  1.00  0.00     0.105 A 
ATOM      6  C   UNL     1       4.240   5.430  38.881  1.00  0.00     0.067 A 
ATOM      7  C   UNL     1       6.036   4.706  41.173  1.00  0.00     0.012 A 
ATOM      8  C   UNL     1       4.677   6.350  39.859  1.00  0.00     0.016 A 
ATOM      9  C   UNL     1       5.533   6.003  40.951  1.00  0.00     0.002 A 
ENDROOT
BRANCH   6  10
ATOM     10  C   UNL     1       3.374   5.800  37.782  1.00  0.00     0.250 C 
ATOM     11  O   UNL     1       3.413   6.938  37.272  1.00  0.00    -0.269 OA
ATOM     12  N   UNL     1       2.494   4.837  37.288  1.00  0.00    -0.366 N 
ATOM     13  H   UNL     1       2.427   3.897  37.661  1.00  0.00     0.159 HD
ATOM     14  H   UNL     1       1.876   5.057  36.514  1.00  0.00     0.159 HD
ENDBRANCH   6  10
BRANCH   1  15
ATOM     15  C   UNL     1       5.250   0.757  38.538  1.00  0.00     0.065 A 
ATOM     16  C   UNL     1       4.224   0.305  37.709  1.00  0.00     0.028 A 
ATOM     17  C   UNL     1       6.294  -0.101  38.888  1.00  0.00     0.028 A 
ATOM     18  C   UNL     1       4.239  -1.004  37.231  1.00  0.00     0.006 A 
ATOM     19  C   UNL     1       6.309  -1.411  38.409  1.00  0.00     0.006 A 
ATOM     20  C   UNL     1       5.282  -1.863  37.580  1.00  0.00    -0.043 A 
BRANCH  20  21
ATOM     21  C   UNL     1       5.298  -3.289  37.061  1.00  0.00     0.033 C 
ATOM     22  C   UNL     1       4.671  -4.269  38.065  1.00  0.00     0.011 C 
ATOM     23  C   UNL     1       6.716  -3.746  36.670  1.00  0.00     0.089 C 
ATOM     24  C   UNL     1       4.750  -5.698  37.533  1.00  0.00     0.016 C 
ATOM     25  N   UNL     1       6.708  -5.113  36.144  1.00  0.00    -0.316 NA
ATOM     26  C   UNL     1       6.175  -6.060  37.123  1.00  0.00     0.081 C 
ATOM     27  H   UNL     1       7.661  -5.383  35.899  1.00  0.00     0.122 HD
ENDBRANCH  20  21
ENDBRANCH   1  15
TORSDOF 3
ENDMDL
MODEL 3
REMARK VINA RESULT:    -9.785      1.694      2.601
REMARK INTER + INTRA:         -12.330
REMARK INTER:                 -11.520
REMARK INTRA:                  -0.810
REMARK UNBOUND:                -0.829
REMARK SMILES NC(=O)c1cccc2cn(-c3ccc([C@@H]4CCCNC4)cc3)nc12
REMARK SMILES IDX 10 1 23 2 8 3 9 4 24 5 4 6 7 7 5 8 6 9 2 10 3 11 1 12 11 15
REMARK SMILES IDX 12 16 22 17 13 18 21 19 14 20 15 21 16 22 20 23 17 24 19 25
REMARK SMILES IDX 18 26
REMARK H PARENT 1 13 1 14 19 27
ROOT
ATOM      1  N   UNL     1       5.228   2.267  39.433  1.00  0.00    -0.240 N 
ATOM      2  N   UNL     1       5.336   3.523  39.909  1.00  0.00    -0.167 NA
ATOM      3  C   UNL     1       4.062   3.423  38.031  1.00  0.00     0.021 A 
ATOM      4  C   UNL     1       4.472   2.148  38.303  1.00  0.00     0.123 A 
ATOM      5  C   UNL     1       4.617   4.274  39.056  1.00  0.00     0.105 A 
ATOM      6  C   UNL     1       4.370   5.659  39.047  1.00  0.00     0.067 A 
ATOM      7  C   UNL     1       3.259   3.805  36.964  1.00  0.00     0.012 A 
ATOM      8  C   UNL     1       3.556   6.080  37.972  1.00  0.00     0.016 A 
ATOM      9  C   UNL     1       3.028   5.194  36.980  1.00  0.00     0.002 A 
ENDROOT
BRANCH   6  10
ATOM     10  C   UNL     1       4.894   6.570  40.041  1.00  0.00     0.250 C 
ATOM     11  O   UNL     1       4.143   7.214  40.801  1.00  0.00    -0.269 OA
ATOM     12  N   UNL     1       6.279   6.701  40.144  1.00  0.00    -0.366 N 
ATOM     13  H   UNL     1       6.933   6.197  39.557  1.00  0.00     0.159 HD
ATOM     14  H   UNL     1       6.685   7.325  40.834  1.00  0.00     0.159 HD
ENDBRANCH   6  10
BRANCH   1  15
ATOM     15  C   UNL     1       5.860   1.223  40.083  1.00  0.00     0.065 A 
ATOM     16  C   UNL     1       6.518   0.239  39.346  1.00  0.00     0.028 A 
ATOM     17  C   UNL     1       5.840   1.156  41.477  1.00  0.00     0.028 A 
ATOM     18  C   UNL     1       7.157  -0.813  40.002  1.00  0.00     0.006 A 
ATOM     19  C   UNL     1       6.478   0.103  42.132  1.00  0.00     0.006 A 
ATOM     20  C   UNL     1       7.136  -0.882  41.395  1.00  0.00    -0.043 A 
BRANCH  20  21
ATOM     21  C   UNL     1       7.829  -2.028  42.109  1.00  0.00     0.033 C 
ATOM     22  C   UNL     1       7.291  -2.220  43.536  1.00  0.00     0.011 C 
ATOM     23  C   UNL     1       9.360  -1.859  42.124  1.00  0.00     0.089 C 
ATOM     24  C   UNL     1       8.044  -3.346  44.241  1.00  0.00     0.016 C 
ATOM     25  N   UNL     1      10.013  -2.988  42.792  1.00  0.00    -0.316 NA
ATOM     26  C   UNL     1       9.554  -3.132  44.173  1.00  0.00     0.081 C 
ATOM     27  H   UNL     1      11.023  -2.843  42.786  1.00  0.00     0.122 HD
ENDBRANCH  20  21
ENDBRANCH   1  15
TORSDOF 3
ENDMDL
MODEL 4
REMARK VINA RESULT:    -9.684      4.257      5.091
REMARK INTER + INTRA:         -12.212
REMARK INTER:                 -11.404
REMARK INTRA:                  -0.808
REMARK UNBOUND:                -0.829
REMARK SMILES NC(=O)c1cccc2cn(-c3ccc([C@@H]4CCCNC4)cc3)nc12
REMARK SMILES IDX 10 1 23 2 8 3 9 4 24 5 4 6 7 7 5 8 6 9 2 10 3 11 1 12 11 15
REMARK SMILES IDX 12 16 22 17 13 18 21 19 14 20 15 21 16 22 20 23 17 24 19 25
REMARK SMILES IDX 18 26
REMARK H PARENT 1 13 1 14 19 27
ROOT
ATOM      1  N   UNL     1       4.314   2.148  39.331  1.00  0.00    -0.240 N 
ATOM      2  N   UNL     1       3.951   3.216  38.595  1.00  0.00    -0.167 NA
ATOM      3  C   UNL     1       5.338   3.779  40.304  1.00  0.00     0.021 A 
ATOM      4  C   UNL     1       5.148   2.428  40.374  1.00  0.00     0.123 A 
ATOM      5  C   UNL     1       4.575   4.257  39.176  1.00  0.00     0.105 A 
ATOM      6  C   UNL     1       4.569   5.624  38.844  1.00  0.00     0.067 A 
ATOM      7  C   UNL     1       6.123   4.532  41.168  1.00  0.00     0.012 A 
ATOM      8  C   UNL     1       5.358   6.418  39.705  1.00  0.00     0.016 A 
ATOM      9  C   UNL     1       6.098   5.895  40.812  1.00  0.00     0.002 A 
ENDROOT
BRANCH   6  10
ATOM     10  C   UNL     1       3.828   6.172  37.728  1.00  0.00     0.250 C 
ATOM     11  O   UNL     1       4.285   7.099  37.030  1.00  0.00    -0.269 OA
ATOM     12  N   UNL     1       2.581   5.619  37.436  1.00  0.00    -0.366 N 
ATOM     13  H   UNL     1       2.167   4.861  37.967  1.00  0.00     0.159 HD
ATOM     14  H   UNL     1       2.034   5.972  36.657  1.00  0.00     0.159 HD
ENDBRANCH   6  10
BRANCH   1  15
ATOM     15  C   UNL     1       3.841   0.890  39.004  1.00  0.00     0.065 A 
ATOM     16  C   UNL     1       4.151   0.329  37.765  1.00  0.00     0.028 A 
ATOM     17  C   UNL     1       3.056   0.181  39.915  1.00  0.00     0.028 A 
ATOM     18  C   UNL     1       3.675  -0.940  37.436  1.00  0.00     0.006 A 
ATOM     19  C   UNL     1       2.580  -1.088  39.586  1.00  0.00     0.006 A 
ATOM     20  C   UNL     1       2.889  -1.649  38.346  1.00  0.00    -0.043 A 
BRANCH  20  21
ATOM     21  C   UNL     1       2.370  -3.029  37.988  1.00  0.00     0.033 C 
ATOM     22  C   UNL     1       0.884  -3.191  38.349  1.00  0.00     0.011 C 
ATOM     23  C   UNL     1       3.210  -4.148  38.630  1.00  0.00     0.089 C 
ATOM     24  C   UNL     1       0.409  -4.605  38.022  1.00  0.00     0.016 C 
ATOM     25  N   UNL     1       2.712  -5.473  38.251  1.00  0.00    -0.316 NA
ATOM     26  C   UNL     1       1.318  -5.656  38.654  1.00  0.00     0.081 C 
ATOM     27  H   UNL     1       3.288  -6.187  38.695  1.00  0.00     0.122 HD
ENDBRANCH  20  21
ENDBRANCH   1  15
TORSDOF 3
ENDMDL
MODEL 5
REMARK VINA RESULT:    -9.580      4.561      8.628
REMARK INTER + INTRA:         -12.089
REMARK INTER:                 -11.272
REMARK INTRA:                  -0.818
REMARK UNBOUND:                -0.829
REMARK SMILES NC(=O)c1cccc2cn(-c3ccc([C@@H]4CCCNC4)cc3)nc12
REMARK SMILES IDX 10 1 23 2 8 3 9 4 24 5 4 6 7 7 5 8 6 9 2 10 3 11 1 12 11 15
REMARK SMILES IDX 12 16 22 17 13 18 21 19 14 20 15 21 16 22 20 23 17 24 19 25
REMARK SMILES IDX 18 26
REMARK H PARENT 1 13 1 14 19 27
ROOT
ATOM      1  N   UNL     1       5.550  -1.173  38.171  1.00  0.00    -0.240 N 
ATOM      2  N   UNL     1       4.569  -2.096  38.201  1.00  0.00    -0.167 NA
ATOM      3  C   UNL     1       6.580  -2.997  37.649  1.00  0.00     0.021 A 
ATOM      4  C   UNL     1       6.782  -1.659  37.844  1.00  0.00     0.123 A 
ATOM      5  C   UNL     1       5.178  -3.251  37.880  1.00  0.00     0.105 A 
ATOM      6  C   UNL     1       4.657  -4.552  37.753  1.00  0.00     0.067 A 
ATOM      7  C   UNL     1       7.555  -3.920  37.298  1.00  0.00     0.012 A 
ATOM      8  C   UNL     1       5.625  -5.515  37.395  1.00  0.00     0.016 A 
ATOM      9  C   UNL     1       7.007  -5.212  37.178  1.00  0.00     0.002 A 
ENDROOT
BRANCH   6  10
ATOM     10  C   UNL     1       3.264  -4.879  37.969  1.00  0.00     0.250 C 
ATOM     11  O   UNL     1       2.905  -5.641  38.888  1.00  0.00    -0.269 OA
ATOM     12  N   UNL     1       2.317  -4.299  37.125  1.00  0.00    -0.366 N 
ATOM     13  H   UNL     1       2.554  -3.668  36.368  1.00  0.00     0.159 HD
ATOM     14  H   UNL     1       1.329  -4.499  37.249  1.00  0.00     0.159 HD
ENDBRANCH   6  10
BRANCH   1  15
ATOM     15  C   UNL     1       5.265   0.149  38.456  1.00  0.00     0.065 A 
ATOM     16  C   UNL     1       5.803   0.749  39.595  1.00  0.00     0.028 A 
ATOM     17  C   UNL     1       4.441   0.886  37.604  1.00  0.00     0.028 A 
ATOM     18  C   UNL     1       5.516   2.083  39.883  1.00  0.00     0.006 A 
ATOM     19  C   UNL     1       4.154   2.220  37.891  1.00  0.00     0.006 A 
ATOM     20  C   UNL     1       4.692   2.819  39.032  1.00  0.00    -0.043 A 
BRANCH  20  21
ATOM     21  C   UNL     1       4.378   4.270  39.345  1.00  0.00     0.033 C 
ATOM     22  C   UNL     1       4.059   5.073  38.073  1.00  0.00     0.011 C 
ATOM     23  C   UNL     1       5.508   4.947  40.145  1.00  0.00     0.089 C 
ATOM     24  C   UNL     1       3.798   6.537  38.421  1.00  0.00     0.016 C 
ATOM     25  N   UNL     1       5.175   6.338  40.462  1.00  0.00    -0.316 NA
ATOM     26  C   UNL     1       4.937   7.122  39.251  1.00  0.00     0.081 C 
ATOM     27  H   UNL     1       5.944   6.754  40.988  1.00  0.00     0.122 HD
ENDBRANCH  20  21
ENDBRANCH   1  15
TORSDOF 3
ENDMDL
MODEL 6
REMARK VINA RESULT:    -9.578      5.029      9.078
REMARK INTER + INTRA:         -12.086
REMARK INTER:                 -11.248
REMARK INTRA:                  -0.838
REMARK UNBOUND:                -0.829
REMARK SMILES NC(=O)c1cccc2cn(-c3ccc([C@@H]4CCCNC4)cc3)nc12
REMARK SMILES IDX 10 1 23 2 8 3 9 4 24 5 4 6 7 7 5 8 6 9 2 10 3 11 1 12 11 15
REMARK SMILES IDX 12 16 22 17 13 18 21 19 14 20 15 21 16 22 20 23 17 24 19 25
REMARK SMILES IDX 18 26
REMARK H PARENT 1 13 1 14 19 27
ROOT
ATOM      1  N   UNL     1       3.238  -1.749  39.267  1.00  0.00    -0.240 N 
ATOM      2  N   UNL     1       2.904  -2.181  40.499  1.00  0.00    -0.167 NA
ATOM      3  C   UNL     1       2.903  -3.860  38.969  1.00  0.00     0.021 A 
ATOM      4  C   UNL     1       3.253  -2.717  38.306  1.00  0.00     0.123 A 
ATOM      5  C   UNL     1       2.688  -3.501  40.350  1.00  0.00     0.105 A 
ATOM      6  C   UNL     1       2.311  -4.475  41.293  1.00  0.00     0.067 A 
ATOM      7  C   UNL     1       2.785  -5.122  38.400  1.00  0.00     0.012 A 
ATOM      8  C   UNL     1       2.181  -5.770  40.745  1.00  0.00     0.016 A 
ATOM      9  C   UNL     1       2.407  -6.076  39.365  1.00  0.00     0.002 A 
ENDROOT
BRANCH   6  10
ATOM     10  C   UNL     1       2.080  -4.185  42.691  1.00  0.00     0.250 C 
ATOM     11  O   UNL     1       1.113  -4.673  43.310  1.00  0.00    -0.269 OA
ATOM     12  N   UNL     1       2.985  -3.350  43.346  1.00  0.00    -0.366 N 
ATOM     13  H   UNL     1       3.790  -2.932  42.892  1.00  0.00     0.159 HD
ATOM     14  H   UNL     1       2.860  -3.128  44.328  1.00  0.00     0.159 HD
ENDBRANCH   6  10
BRANCH   1  15
ATOM     15  C   UNL     1       3.529  -0.414  39.058  1.00  0.00     0.065 A 
ATOM     16  C   UNL     1       4.195  -0.019  37.898  1.00  0.00     0.028 A 
ATOM     17  C   UNL     1       3.155   0.539  40.006  1.00  0.00     0.028 A 
ATOM     18  C   UNL     1       4.488   1.328  37.686  1.00  0.00     0.006 A 
ATOM     19  C   UNL     1       3.448   1.886  39.795  1.00  0.00     0.006 A 
ATOM     20  C   UNL     1       4.116   2.281  38.634  1.00  0.00    -0.043 A 
BRANCH  20  21
ATOM     21  C   UNL     1       4.436   3.747  38.405  1.00  0.00     0.033 C 
ATOM     22  C   UNL     1       4.788   4.466  39.718  1.00  0.00     0.011 C 
ATOM     23  C   UNL     1       3.297   4.480  37.673  1.00  0.00     0.089 C 
ATOM     24  C   UNL     1       5.055   5.946  39.457  1.00  0.00     0.016 C 
ATOM     25  N   UNL     1       3.635   5.886  37.435  1.00  0.00    -0.316 NA
ATOM     26  C   UNL     1       3.904   6.591  38.688  1.00  0.00     0.081 C 
ATOM     27  H   UNL     1       2.860   6.340  36.952  1.00  0.00     0.122 HD
ENDBRANCH  20  21
ENDBRANCH   1  15
TORSDOF 3
ENDMDL
MODEL 7
REMARK VINA RESULT:    -9.549      4.570      8.611
REMARK INTER + INTRA:         -12.053
REMARK INTER:                 -11.243
REMARK INTRA:                  -0.809
REMARK UNBOUND:                -0.829
REMARK SMILES NC(=O)c1cccc2cn(-c3ccc([C@@H]4CCCNC4)cc3)nc12
REMARK SMILES IDX 10 1 23 2 8 3 9 4 24 5 4 6 7 7 5 8 6 9 2 10 3 11 1 12 11 15
REMARK SMILES IDX 12 16 22 17 13 18 21 19 14 20 15 21 16 22 20 23 17 24 19 25
REMARK SMILES IDX 18 26
REMARK H PARENT 1 13 1 14 19 27
ROOT
ATOM      1  N   UNL     1       4.357  -1.092  38.541  1.00  0.00    -0.240 N 
ATOM      2  N   UNL     1       5.303  -1.816  37.913  1.00  0.00    -0.167 NA
ATOM      3  C   UNL     1       3.603  -3.109  38.685  1.00  0.00     0.021 A 
ATOM      4  C   UNL     1       3.309  -1.819  39.026  1.00  0.00     0.123 A 
ATOM      5  C   UNL     1       4.864  -3.085  37.983  1.00  0.00     0.105 A 
ATOM      6  C   UNL     1       5.437  -4.276  37.500  1.00  0.00     0.067 A 
ATOM      7  C   UNL     1       2.820  -4.220  38.968  1.00  0.00     0.012 A 
ATOM      8  C   UNL     1       4.664  -5.426  37.774  1.00  0.00     0.016 A 
ATOM      9  C   UNL     1       3.416  -5.397  38.474  1.00  0.00     0.002 A 
ENDROOT
BRANCH   6  10
ATOM     10  C   UNL     1       6.696  -4.326  36.789  1.00  0.00     0.250 C 
ATOM     11  O   UNL     1       6.923  -5.187  35.917  1.00  0.00    -0.269 OA
ATOM     12  N   UNL     1       7.658  -3.363  37.094  1.00  0.00    -0.366 N 
ATOM     13  H   UNL     1       7.523  -2.637  37.789  1.00  0.00     0.159 HD
ATOM     14  H   UNL     1       8.552  -3.360  36.612  1.00  0.00     0.159 HD
ENDBRANCH   6  10
BRANCH   1  15
ATOM     15  C   UNL     1       4.495   0.279  38.654  1.00  0.00     0.065 A 
ATOM     16  C   UNL     1       5.107   0.828  39.780  1.00  0.00     0.028 A 
ATOM     17  C   UNL     1       4.023   1.114  37.639  1.00  0.00     0.028 A 
ATOM     18  C   UNL     1       5.248   2.211  39.893  1.00  0.00     0.006 A 
ATOM     19  C   UNL     1       4.164   2.497  37.753  1.00  0.00     0.006 A 
ATOM     20  C   UNL     1       4.776   3.046  38.880  1.00  0.00    -0.043 A 
BRANCH  20  21
ATOM     21  C   UNL     1       4.926   4.551  39.004  1.00  0.00     0.033 C 
ATOM     22  C   UNL     1       5.432   4.961  40.396  1.00  0.00     0.011 C 
ATOM     23  C   UNL     1       3.621   5.293  38.660  1.00  0.00     0.089 C 
ATOM     24  C   UNL     1       5.524   6.482  40.501  1.00  0.00     0.016 C 
ATOM     25  N   UNL     1       3.794   6.745  38.757  1.00  0.00    -0.316 NA
ATOM     26  C   UNL     1       4.210   7.147  40.100  1.00  0.00     0.081 C 
ATOM     27  H   UNL     1       2.912   7.203  38.525  1.00  0.00     0.122 HD
ENDBRANCH  20  21
ENDBRANCH   1  15
TORSDOF 3
ENDMDL
MODEL 8
REMARK VINA RESULT:    -9.419      5.015      8.842
REMARK INTER + INTRA:         -11.900
REMARK INTER:                 -11.132
REMARK INTRA:                  -0.768
REMARK UNBOUND:                -0.829
REMARK SMILES NC(=O)c1cccc2cn(-c3ccc([C@@H]4CCCNC4)cc3)nc12
REMARK SMILES IDX 10 1 23 2 8 3 9 4 24 5 4 6 7 7 5 8 6 9 2 10 3 11 1 12 11 15
REMARK SMILES IDX 12 16 22 17 13 18 21 19 14 20 15 21 16 22 20 23 17 24 19 25
REMARK SMILES IDX 18 26
REMARK H PARENT 1 13 1 14 19 27
ROOT
ATOM      1  N   UNL     1       3.184  -1.404  39.861  1.00  0.00    -0.240 N 
ATOM      2  N   UNL     1       3.217  -2.386  38.939  1.00  0.00    -0.167 NA
ATOM      3  C   UNL     1       2.640  -3.157  40.997  1.00  0.00     0.021 A 
ATOM      4  C   UNL     1       2.843  -1.811  41.118  1.00  0.00     0.123 A 
ATOM      5  C   UNL     1       2.881  -3.500  39.616  1.00  0.00     0.105 A 
ATOM      6  C   UNL     1       2.751  -4.830  39.175  1.00  0.00     0.067 A 
ATOM      7  C   UNL     1       2.271  -4.015  42.024  1.00  0.00     0.012 A 
ATOM      8  C   UNL     1       2.376  -5.729  40.198  1.00  0.00     0.016 A 
ATOM      9  C   UNL     1       2.148  -5.338  41.555  1.00  0.00     0.002 A 
ENDROOT
BRANCH   6  10
ATOM     10  C   UNL     1       2.976  -5.243  37.807  1.00  0.00     0.250 C 
ATOM     11  O   UNL     1       3.956  -5.946  37.488  1.00  0.00    -0.269 OA
ATOM     12  N   UNL     1       2.050  -4.848  36.842  1.00  0.00    -0.366 N 
ATOM     13  H   UNL     1       1.234  -4.282  37.048  1.00  0.00     0.159 HD
ATOM     14  H   UNL     1       2.170  -5.123  35.873  1.00  0.00     0.159 HD
ENDBRANCH   6  10
BRANCH   1  15
ATOM     15  C   UNL     1       3.485  -0.105  39.498  1.00  0.00     0.065 A 
ATOM     16  C   UNL     1       4.187   0.146  38.319  1.00  0.00     0.028 A 
ATOM     17  C   UNL     1       3.084   0.957  40.310  1.00  0.00     0.028 A 
ATOM     18  C   UNL     1       4.490   1.457  37.953  1.00  0.00     0.006 A 
ATOM     19  C   UNL     1       3.387   2.268  39.944  1.00  0.00     0.006 A 
ATOM     20  C   UNL     1       4.090   2.519  38.765  1.00  0.00    -0.043 A 
BRANCH  20  21
ATOM     21  C   UNL     1       4.421   3.946  38.368  1.00  0.00     0.033 C 
ATOM     22  C   UNL     1       4.730   4.822  39.593  1.00  0.00     0.011 C 
ATOM     23  C   UNL     1       3.308   4.581  37.512  1.00  0.00     0.089 C 
ATOM     24  C   UNL     1       5.008   6.260  39.161  1.00  0.00     0.016 C 
ATOM     25  N   UNL     1       3.658   5.947  37.115  1.00  0.00    -0.316 NA
ATOM     26  C   UNL     1       3.886   6.802  38.280  1.00  0.00     0.081 C 
ATOM     27  H   UNL     1       2.900   6.336  36.554  1.00  0.00     0.122 HD
ENDBRANCH  20  21
ENDBRANCH   1  15
TORSDOF 3
ENDMDL
MODEL 9
REMARK VINA RESULT:    -9.412      4.993      7.288
REMARK INTER + INTRA:         -11.892
REMARK INTER:                 -11.053
REMARK INTRA:                  -0.839
REMARK UNBOUND:                -0.829
REMARK SMILES NC(=O)c1cccc2cn(-c3ccc([C@@H]4CCCNC4)cc3)nc12
REMARK SMILES IDX 10 1 23 2 8 3 9 4 24 5 4 6 7 7 5 8 6 9 2 10 3 11 1 12 11 15
REMARK SMILES IDX 12 16 22 17 13 18 21 19 14 20 15 21 16 22 20 23 17 24 19 25
REMARK SMILES IDX 18 26
REMARK H PARENT 1 13 1 14 19 27
ROOT
ATOM      1  N   UNL     1       2.726  -0.471  40.273  1.00  0.00    -0.240 N 
ATOM      2  N   UNL     1       3.075  -1.554  39.553  1.00  0.00    -0.167 NA
ATOM      3  C   UNL     1       0.842  -1.478  39.963  1.00  0.00     0.021 A 
ATOM      4  C   UNL     1       1.393  -0.373  40.550  1.00  0.00     0.123 A 
ATOM      5  C   UNL     1       1.919  -2.208  39.340  1.00  0.00     0.105 A 
ATOM      6  C   UNL     1       1.665  -3.407  38.648  1.00  0.00     0.067 A 
ATOM      7  C   UNL     1      -0.505  -1.814  39.976  1.00  0.00     0.012 A 
ATOM      8  C   UNL     1       0.302  -3.777  38.643  1.00  0.00     0.016 A 
ATOM      9  C   UNL     1      -0.731  -3.016  39.277  1.00  0.00     0.002 A 
ENDROOT
BRANCH   6  10
ATOM     10  C   UNL     1       2.695  -4.190  38.001  1.00  0.00     0.250 C 
ATOM     11  O   UNL     1       2.600  -4.539  36.807  1.00  0.00    -0.269 OA
ATOM     12  N   UNL     1       3.822  -4.535  38.747  1.00  0.00    -0.366 N 
ATOM     13  H   UNL     1       3.951  -4.272  39.718  1.00  0.00     0.159 HD
ATOM     14  H   UNL     1       4.569  -5.078  38.326  1.00  0.00     0.159 HD
ENDBRANCH   6  10
BRANCH   1  15
ATOM     15  C   UNL     1       3.690   0.436  40.673  1.00  0.00     0.065 A 
ATOM     16  C   UNL     1       4.154   0.427  41.988  1.00  0.00     0.028 A 
ATOM     17  C   UNL     1       4.202   1.358  39.759  1.00  0.00     0.028 A 
ATOM     18  C   UNL     1       5.128   1.340  42.391  1.00  0.00     0.006 A 
ATOM     19  C   UNL     1       5.176   2.272  40.161  1.00  0.00     0.006 A 
ATOM     20  C   UNL     1       5.639   2.263  41.478  1.00  0.00    -0.043 A 
BRANCH  20  21
ATOM     21  C   UNL     1       6.698   3.259  41.916  1.00  0.00     0.033 C 
ATOM     22  C   UNL     1       6.932   3.211  43.435  1.00  0.00     0.011 C 
ATOM     23  C   UNL     1       6.366   4.693  41.462  1.00  0.00     0.089 C 
ATOM     24  C   UNL     1       7.964   4.258  43.846  1.00  0.00     0.016 C 
ATOM     25  N   UNL     1       7.413   5.634  41.869  1.00  0.00    -0.316 NA
ATOM     26  C   UNL     1       7.592   5.642  43.320  1.00  0.00     0.081 C 
ATOM     27  H   UNL     1       7.160   6.571  41.555  1.00  0.00     0.122 HD
ENDBRANCH  20  21
ENDBRANCH   1  15
TORSDOF 3
ENDMDL
MODEL 10
REMARK VINA RESULT:    -9.382      4.688      6.462
REMARK INTER + INTRA:         -11.856
REMARK INTER:                 -11.036
REMARK INTRA:                  -0.820
REMARK UNBOUND:                -0.829
REMARK SMILES NC(=O)c1cccc2cn(-c3ccc([C@@H]4CCCNC4)cc3)nc12
REMARK SMILES IDX 10 1 23 2 8 3 9 4 24 5 4 6 7 7 5 8 6 9 2 10 3 11 1 12 11 15
REMARK SMILES IDX 12 16 22 17 13 18 21 19 14 20 15 21 16 22 20 23 17 24 19 25
REMARK SMILES IDX 18 26
REMARK H PARENT 1 13 1 14 19 27
ROOT
ATOM      1  N   UNL     1       3.007   0.280  40.939  1.00  0.00    -0.240 N 
ATOM      2  N   UNL     1       3.183  -0.507  39.860  1.00  0.00    -0.167 NA
ATOM      3  C   UNL     1       1.062  -0.614  40.666  1.00  0.00     0.021 A 
ATOM      4  C   UNL     1       1.749   0.255  41.467  1.00  0.00     0.123 A 
ATOM      5  C   UNL     1       1.983  -1.082  39.659  1.00  0.00     0.105 A 
ATOM      6  C   UNL     1       1.565  -1.999  38.677  1.00  0.00     0.067 A 
ATOM      7  C   UNL     1      -0.274  -0.964  40.811  1.00  0.00     0.012 A 
ATOM      8  C   UNL     1       0.210  -2.377  38.799  1.00  0.00     0.016 A 
ATOM      9  C   UNL     1      -0.665  -1.882  39.817  1.00  0.00     0.002 A 
ENDROOT
BRANCH   6  10
ATOM     10  C   UNL     1       2.435  -2.510  37.640  1.00  0.00     0.250 C 
ATOM     11  O   UNL     1       2.392  -3.702  37.277  1.00  0.00    -0.269 OA
ATOM     12  N   UNL     1       3.323  -1.621  37.033  1.00  0.00    -0.366 N 
ATOM     13  H   UNL     1       3.394  -0.642  37.286  1.00  0.00     0.159 HD
ATOM     14  H   UNL     1       3.944  -1.940  36.297  1.00  0.00     0.159 HD
ENDBRANCH   6  10
BRANCH   1  15
ATOM     15  C   UNL     1       4.061   1.030  41.428  1.00  0.00     0.065 A 
ATOM     16  C   UNL     1       4.609   2.052  40.653  1.00  0.00     0.028 A 
ATOM     17  C   UNL     1       4.576   0.765  42.698  1.00  0.00     0.028 A 
ATOM     18  C   UNL     1       5.671   2.808  41.147  1.00  0.00     0.006 A 
ATOM     19  C   UNL     1       5.638   1.521  43.192  1.00  0.00     0.006 A 
ATOM     20  C   UNL     1       6.187   2.543  42.416  1.00  0.00    -0.043 A 
BRANCH  20  21
ATOM     21  C   UNL     1       7.344   3.365  42.953  1.00  0.00     0.033 C 
ATOM     22  C   UNL     1       7.184   4.859  42.625  1.00  0.00     0.011 C 
ATOM     23  C   UNL     1       8.705   2.843  42.455  1.00  0.00     0.089 C 
ATOM     24  C   UNL     1       8.388   5.647  43.135  1.00  0.00     0.016 C 
ATOM     25  N   UNL     1       9.811   3.630  43.006  1.00  0.00    -0.316 NA
ATOM     26  C   UNL     1       9.699   5.042  42.639  1.00  0.00     0.081 C 
ATOM     27  H   UNL     1      10.693   3.259  42.655  1.00  0.00     0.122 HD
ENDBRANCH  20  21
ENDBRANCH   1  15
TORSDOF 3
ENDMDL
MODEL 11
REMARK VINA RESULT:    -9.209      5.227      6.039
REMARK INTER + INTRA:         -11.653
REMARK INTER:                 -10.805
REMARK INTRA:                  -0.849
REMARK UNBOUND:                -0.829
REMARK SMILES NC(=O)c1cccc2cn(-c3ccc([C@@H]4CCCNC4)cc3)nc12
REMARK SMILES IDX 10 1 23 2 8 3 9 4 24 5 4 6 7 7 5 8 6 9 2 10 3 11 1 12 11 15
REMARK SMILES IDX 12 16 22 17 13 18 21 19 14 20 15 21 16 22 20 23 17 24 19 25
REMARK SMILES IDX 18 26
REMARK H PARENT 1 13 1 14 19 27
ROOT
ATOM      1  N   UNL     1       3.843  -0.471  41.004  1.00  0.00    -0.240 N 
ATOM      2  N   UNL     1       3.763   0.401  39.980  1.00  0.00    -0.167 NA
ATOM      3  C   UNL     1       5.025   1.198  41.692  1.00  0.00     0.021 A 
ATOM      4  C   UNL     1       4.590  -0.044  42.062  1.00  0.00     0.123 A 
ATOM      5  C   UNL     1       4.492   1.459  40.377  1.00  0.00     0.105 A 
ATOM      6  C   UNL     1       4.768   2.673  39.721  1.00  0.00     0.067 A 
ATOM      7  C   UNL     1       5.829   2.035  42.455  1.00  0.00     0.012 A 
ATOM      8  C   UNL     1       5.584   3.547  40.472  1.00  0.00     0.016 A 
ATOM      9  C   UNL     1       6.089   3.241  41.776  1.00  0.00     0.002 A 
ENDROOT
BRANCH   6  10
ATOM     10  C   UNL     1       4.268   3.001  38.404  1.00  0.00     0.250 C 
ATOM     11  O   UNL     1       3.906   4.157  38.109  1.00  0.00    -0.269 OA
ATOM     12  N   UNL     1       4.217   1.983  37.451  1.00  0.00    -0.366 N 
ATOM     13  H   UNL     1       4.505   1.029  37.636  1.00  0.00     0.159 HD
ATOM     14  H   UNL     1       3.878   2.175  36.513  1.00  0.00     0.159 HD
ENDBRANCH   6  10
BRANCH   1  15
ATOM     15  C   UNL     1       3.194  -1.690  40.928  1.00  0.00     0.065 A 
ATOM     16  C   UNL     1       2.674  -2.128  39.710  1.00  0.00     0.028 A 
ATOM     17  C   UNL     1       3.060  -2.481  42.069  1.00  0.00     0.028 A 
ATOM     18  C   UNL     1       2.020  -3.358  39.633  1.00  0.00     0.006 A 
ATOM     19  C   UNL     1       2.406  -3.711  41.992  1.00  0.00     0.006 A 
ATOM     20  C   UNL     1       1.885  -4.149  40.774  1.00  0.00    -0.043 A 
BRANCH  20  21
ATOM     21  C   UNL     1       1.172  -5.486  40.691  1.00  0.00     0.033 C 
ATOM     22  C   UNL     1       1.868  -6.558  41.545  1.00  0.00     0.011 C 
ATOM     23  C   UNL     1       1.013  -5.968  39.237  1.00  0.00     0.089 C 
ATOM     24  C   UNL     1       1.154  -7.900  41.398  1.00  0.00     0.016 C 
ATOM     25  N   UNL     1       0.297  -7.245  39.175  1.00  0.00    -0.316 NA
ATOM     26  C   UNL     1       0.994  -8.286  39.930  1.00  0.00     0.081 C 
ATOM     27  H   UNL     1       0.213  -7.535  38.201  1.00  0.00     0.122 HD
ENDBRANCH  20  21
ENDBRANCH   1  15
TORSDOF 3
ENDMDL
MODEL 12
REMARK VINA RESULT:    -9.197      4.114      5.194
REMARK INTER + INTRA:         -11.639
REMARK INTER:                 -10.830
REMARK INTRA:                  -0.809
REMARK UNBOUND:                -0.829
REMARK SMILES NC(=O)c1cccc2cn(-c3ccc([C@@H]4CCCNC4)cc3)nc12
REMARK SMILES IDX 10 1 23 2 8 3 9 4 24 5 4 6 7 7 5 8 6 9 2 10 3 11 1 12 11 15
REMARK SMILES IDX 12 16 22 17 13 18 21 19 14 20 15 21 16 22 20 23 17 24 19 25
REMARK SMILES IDX 18 26
REMARK H PARENT 1 13 1 14 19 27
ROOT
ATOM      1  N   UNL     1       4.663   2.072  38.220  1.00  0.00    -0.240 N 
ATOM      2  N   UNL     1       5.335   2.573  39.274  1.00  0.00    -0.167 NA
ATOM      3  C   UNL     1       4.045   4.139  38.253  1.00  0.00     0.021 A 
ATOM      4  C   UNL     1       3.871   2.970  37.567  1.00  0.00     0.123 A 
ATOM      5  C   UNL     1       4.971   3.867  39.326  1.00  0.00     0.105 A 
ATOM      6  C   UNL     1       5.354   4.886  40.217  1.00  0.00     0.067 A 
ATOM      7  C   UNL     1       3.434   5.351  37.957  1.00  0.00     0.012 A 
ATOM      8  C   UNL     1       4.749   6.133  39.942  1.00  0.00     0.016 A 
ATOM      9  C   UNL     1       3.834   6.352  38.864  1.00  0.00     0.002 A 
ENDROOT
BRANCH   6  10
ATOM     10  C   UNL     1       6.277   4.684  41.313  1.00  0.00     0.250 C 
ATOM     11  O   UNL     1       7.025   5.597  41.716  1.00  0.00    -0.269 OA
ATOM     12  N   UNL     1       6.298   3.433  41.929  1.00  0.00    -0.366 N 
ATOM     13  H   UNL     1       5.706   2.660  41.645  1.00  0.00     0.159 HD
ATOM     14  H   UNL     1       6.927   3.254  42.706  1.00  0.00     0.159 HD
ENDBRANCH   6  10
BRANCH   1  15
ATOM     15  C   UNL     1       4.809   0.741  37.875  1.00  0.00     0.065 A 
ATOM     16  C   UNL     1       3.682  -0.060  37.691  1.00  0.00     0.028 A 
ATOM     17  C   UNL     1       6.085   0.199  37.709  1.00  0.00     0.028 A 
ATOM     18  C   UNL     1       3.830  -1.403  37.343  1.00  0.00     0.006 A 
ATOM     19  C   UNL     1       6.233  -1.143  37.361  1.00  0.00     0.006 A 
ATOM     20  C   UNL     1       5.105  -1.945  37.178  1.00  0.00    -0.043 A 
BRANCH  20  21
ATOM     21  C   UNL     1       5.266  -3.406  36.800  1.00  0.00     0.033 C 
ATOM     22  C   UNL     1       4.751  -4.341  37.906  1.00  0.00     0.011 C 
ATOM     23  C   UNL     1       6.721  -3.751  36.431  1.00  0.00     0.089 C 
ATOM     24  C   UNL     1       4.974  -5.800  37.514  1.00  0.00     0.016 C 
ATOM     25  N   UNL     1       6.852  -5.157  36.042  1.00  0.00    -0.316 NA
ATOM     26  C   UNL     1       6.427  -6.052  37.118  1.00  0.00     0.081 C 
ATOM     27  H   UNL     1       7.826  -5.351  35.808  1.00  0.00     0.122 HD
ENDBRANCH  20  21
ENDBRANCH   1  15
TORSDOF 3
ENDMDL
MODEL 13
REMARK VINA RESULT:    -9.037      5.917      8.553
REMARK INTER + INTRA:         -11.451
REMARK INTER:                 -10.629
REMARK INTRA:                  -0.823
REMARK UNBOUND:                -0.829
REMARK SMILES NC(=O)c1cccc2cn(-c3ccc([C@@H]4CCCNC4)cc3)nc12
REMARK SMILES IDX 10 1 23 2 8 3 9 4 24 5 4 6 7 7 5 8 6 9 2 10 3 11 1 12 11 15
REMARK SMILES IDX 12 16 22 17 13 18 21 19 14 20 15 21 16 22 20 23 17 24 19 25
REMARK SMILES IDX 18 26
REMARK H PARENT 1 13 1 14 19 27
ROOT
ATOM      1  N   UNL     1       2.301  -2.971  41.981  1.00  0.00    -0.240 N 
ATOM      2  N   UNL     1       1.511  -3.130  40.902  1.00  0.00    -0.167 NA
ATOM      3  C   UNL     1       1.439  -4.925  42.292  1.00  0.00     0.021 A 
ATOM      4  C   UNL     1       2.298  -4.021  42.853  1.00  0.00     0.123 A 
ATOM      5  C   UNL     1       0.954  -4.344  41.064  1.00  0.00     0.105 A 
ATOM      6  C   UNL     1       0.043  -5.044  40.251  1.00  0.00     0.067 A 
ATOM      7  C   UNL     1       1.109  -6.165  42.824  1.00  0.00     0.012 A 
ATOM      8  C   UNL     1      -0.312  -6.311  40.765  1.00  0.00     0.016 A 
ATOM      9  C   UNL     1       0.197  -6.843  41.991  1.00  0.00     0.002 A 
ENDROOT
BRANCH   6  10
ATOM     10  C   UNL     1      -0.483  -4.523  39.009  1.00  0.00     0.250 C 
ATOM     11  O   UNL     1      -1.709  -4.479  38.784  1.00  0.00    -0.269 OA
ATOM     12  N   UNL     1       0.423  -4.046  38.062  1.00  0.00    -0.366 N 
ATOM     13  H   UNL     1       1.428  -4.053  38.197  1.00  0.00     0.159 HD
ATOM     14  H   UNL     1       0.092  -3.667  37.181  1.00  0.00     0.159 HD
ENDBRANCH   6  10
BRANCH   1  15
ATOM     15  C   UNL     1       3.037  -1.811  42.136  1.00  0.00     0.065 A 
ATOM     16  C   UNL     1       2.385  -0.585  42.277  1.00  0.00     0.028 A 
ATOM     17  C   UNL     1       4.431  -1.865  42.153  1.00  0.00     0.028 A 
ATOM     18  C   UNL     1       3.127   0.585  42.434  1.00  0.00     0.006 A 
ATOM     19  C   UNL     1       5.173  -0.695  42.310  1.00  0.00     0.006 A 
ATOM     20  C   UNL     1       4.521   0.531  42.450  1.00  0.00    -0.043 A 
BRANCH  20  21
ATOM     21  C   UNL     1       5.328   1.805  42.619  1.00  0.00     0.033 C 
ATOM     22  C   UNL     1       5.941   2.273  41.289  1.00  0.00     0.011 C 
ATOM     23  C   UNL     1       6.419   1.660  43.697  1.00  0.00     0.089 C 
ATOM     24  C   UNL     1       6.786   3.526  41.505  1.00  0.00     0.016 C 
ATOM     25  N   UNL     1       7.169   2.907  43.866  1.00  0.00    -0.316 NA
ATOM     26  C   UNL     1       7.810   3.320  42.618  1.00  0.00     0.081 C 
ATOM     27  H   UNL     1       7.882   2.775  44.584  1.00  0.00     0.122 HD
ENDBRANCH  20  21
ENDBRANCH   1  15
TORSDOF 3
ENDMDL
MODEL 14
REMARK VINA RESULT:    -9.013      5.590      6.728
REMARK INTER + INTRA:         -11.423
REMARK INTER:                 -10.563
REMARK INTRA:                  -0.860
REMARK UNBOUND:                -0.829
REMARK SMILES NC(=O)c1cccc2cn(-c3ccc([C@@H]4CCCNC4)cc3)nc12
REMARK SMILES IDX 10 1 23 2 8 3 9 4 24 5 4 6 7 7 5 8 6 9 2 10 3 11 1 12 11 15
REMARK SMILES IDX 12 16 22 17 13 18 21 19 14 20 15 21 16 22 20 23 17 24 19 25
REMARK SMILES IDX 18 26
REMARK H PARENT 1 13 1 14 19 27
ROOT
ATOM      1  N   UNL     1       3.749  -0.313  40.630  1.00  0.00    -0.240 N 
ATOM      2  N   UNL     1       4.547   0.034  41.658  1.00  0.00    -0.167 NA
ATOM      3  C   UNL     1       4.416   1.665  40.082  1.00  0.00     0.021 A 
ATOM      4  C   UNL     1       3.633   0.631  39.651  1.00  0.00     0.123 A 
ATOM      5  C   UNL     1       4.983   1.268  41.349  1.00  0.00     0.105 A 
ATOM      6  C   UNL     1       5.844   2.133  42.050  1.00  0.00     0.067 A 
ATOM      7  C   UNL     1       4.614   2.864  39.411  1.00  0.00     0.012 A 
ATOM      8  C   UNL     1       6.066   3.363  41.392  1.00  0.00     0.016 A 
ATOM      9  C   UNL     1       5.479   3.709  40.134  1.00  0.00     0.002 A 
ENDROOT
BRANCH   6  10
ATOM     10  C   UNL     1       6.446   1.801  43.323  1.00  0.00     0.250 C 
ATOM     11  O   UNL     1       6.401   2.583  44.293  1.00  0.00    -0.269 OA
ATOM     12  N   UNL     1       7.072   0.560  43.447  1.00  0.00    -0.366 N 
ATOM     13  H   UNL     1       7.131  -0.114  42.693  1.00  0.00     0.159 HD
ATOM     14  H   UNL     1       7.501   0.288  44.326  1.00  0.00     0.159 HD
ENDBRANCH   6  10
BRANCH   1  15
ATOM     15  C   UNL     1       3.125  -1.547  40.624  1.00  0.00     0.065 A 
ATOM     16  C   UNL     1       3.110  -2.327  41.780  1.00  0.00     0.028 A 
ATOM     17  C   UNL     1       2.507  -2.011  39.461  1.00  0.00     0.028 A 
ATOM     18  C   UNL     1       2.479  -3.571  41.774  1.00  0.00     0.006 A 
ATOM     19  C   UNL     1       1.876  -3.255  39.456  1.00  0.00     0.006 A 
ATOM     20  C   UNL     1       1.863  -4.036  40.612  1.00  0.00    -0.043 A 
BRANCH  20  21
ATOM     21  C   UNL     1       1.178  -5.390  40.605  1.00  0.00     0.033 C 
ATOM     22  C   UNL     1       1.936  -6.417  41.461  1.00  0.00     0.011 C 
ATOM     23  C   UNL     1       0.967  -5.924  39.176  1.00  0.00     0.089 C 
ATOM     24  C   UNL     1       1.248  -7.779  41.391  1.00  0.00     0.016 C 
ATOM     25  N   UNL     1       0.280  -7.218  39.187  1.00  0.00    -0.316 NA
ATOM     26  C   UNL     1       1.032  -8.218  39.944  1.00  0.00     0.081 C 
ATOM     27  H   UNL     1       0.160  -7.542  38.228  1.00  0.00     0.122 HD
ENDBRANCH  20  21
ENDBRANCH   1  15
TORSDOF 3
ENDMDL
MODEL 15
REMARK VINA RESULT:    -8.965      3.959      4.551
REMARK INTER + INTRA:         -11.366
REMARK INTER:                 -10.716
REMARK INTRA:                  -0.650
REMARK UNBOUND:                -0.829
REMARK SMILES NC(=O)c1cccc2cn(-c3ccc([C@@H]4CCCNC4)cc3)nc12
REMARK SMILES IDX 10 1 23 2 8 3 9 4 24 5 4 6 7 7 5 8 6 9 2 10 3 11 1 12 11 15
REMARK SMILES IDX 12 16 22 17 13 18 21 19 14 20 15 21 16 22 20 23 17 24 19 25
REMARK SMILES IDX 18 26
REMARK H PARENT 1 13 1 14 19 27
ROOT
ATOM      1  N   UNL     1       4.196   1.531  39.766  1.00  0.00    -0.240 N 
ATOM      2  N   UNL     1       3.650   2.226  38.749  1.00  0.00    -0.167 NA
ATOM      3  C   UNL     1       4.966   3.525  40.069  1.00  0.00     0.021 A 
ATOM      4  C   UNL     1       4.997   2.263  40.593  1.00  0.00     0.123 A 
ATOM      5  C   UNL     1       4.112   3.480  38.907  1.00  0.00     0.105 A 
ATOM      6  C   UNL     1       3.879   4.639  38.144  1.00  0.00     0.067 A 
ATOM      7  C   UNL     1       5.639   4.629  40.575  1.00  0.00     0.012 A 
ATOM      8  C   UNL     1       4.550   5.781  38.635  1.00  0.00     0.016 A 
ATOM      9  C   UNL     1       5.389   5.774  39.794  1.00  0.00     0.002 A 
ENDROOT
BRANCH   6  10
ATOM     10  C   UNL     1       3.036   4.667  36.969  1.00  0.00     0.250 C 
ATOM     11  O   UNL     1       3.412   4.188  35.881  1.00  0.00    -0.269 OA
ATOM     12  N   UNL     1       1.766   5.232  37.087  1.00  0.00    -0.366 N 
ATOM     13  H   UNL     1       1.409   5.629  37.949  1.00  0.00     0.159 HD
ATOM     14  H   UNL     1       1.143   5.265  36.287  1.00  0.00     0.159 HD
ENDBRANCH   6  10
BRANCH   1  15
ATOM     15  C   UNL     1       3.924   0.183  39.908  1.00  0.00     0.065 A 
ATOM     16  C   UNL     1       2.639  -0.299  39.659  1.00  0.00     0.028 A 
ATOM     17  C   UNL     1       4.936  -0.695  40.298  1.00  0.00     0.028 A 
ATOM     18  C   UNL     1       2.365  -1.659  39.801  1.00  0.00     0.006 A 
ATOM     19  C   UNL     1       4.662  -2.055  40.440  1.00  0.00     0.006 A 
ATOM     20  C   UNL     1       3.376  -2.538  40.192  1.00  0.00    -0.043 A 
BRANCH  20  21
ATOM     21  C   UNL     1       3.078  -4.018  40.348  1.00  0.00     0.033 C 
ATOM     22  C   UNL     1       2.654  -4.658  39.017  1.00  0.00     0.011 C 
ATOM     23  C   UNL     1       2.024  -4.284  41.439  1.00  0.00     0.089 C 
ATOM     24  C   UNL     1       2.314  -6.133  39.221  1.00  0.00     0.016 C 
ATOM     25  N   UNL     1       1.770  -5.718  41.595  1.00  0.00    -0.316 NA
ATOM     26  C   UNL     1       1.300  -6.318  40.347  1.00  0.00     0.081 C 
ATOM     27  H   UNL     1       1.068  -5.857  42.322  1.00  0.00     0.122 HD
ENDBRANCH  20  21
ENDBRANCH   1  15
TORSDOF 3
ENDMDL
MODEL 16
REMARK VINA RESULT:    -8.797      4.190      5.437
REMARK INTER + INTRA:         -11.169
REMARK INTER:                 -10.791
REMARK INTRA:                  -0.377
REMARK UNBOUND:                -0.829
REMARK SMILES NC(=O)c1cccc2cn(-c3ccc([C@@H]4CCCNC4)cc3)nc12
REMARK SMILES IDX 10 1 23 2 8 3 9 4 24 5 4 6 7 7 5 8 6 9 2 10 3 11 1 12 11 15
REMARK SMILES IDX 12 16 22 17 13 18 21 19 14 20 15 21 16 22 20 23 17 24 19 25
REMARK SMILES IDX 18 26
REMARK H PARENT 1 13 1 14 19 27
ROOT
ATOM      1  N   UNL     1       4.135   2.671  38.909  1.00  0.00    -0.240 N 
ATOM      2  N   UNL     1       4.997   3.088  39.856  1.00  0.00    -0.167 NA
ATOM      3  C   UNL     1       4.117   4.817  38.674  1.00  0.00     0.021 A 
ATOM      4  C   UNL     1       3.575   3.670  38.166  1.00  0.00     0.123 A 
ATOM      5  C   UNL     1       5.011   4.428  39.738  1.00  0.00     0.105 A 
ATOM      6  C   UNL     1       5.728   5.399  40.461  1.00  0.00     0.067 A 
ATOM      7  C   UNL     1       3.845   6.105  38.233  1.00  0.00     0.012 A 
ATOM      8  C   UNL     1       5.472   6.721  40.036  1.00  0.00     0.016 A 
ATOM      9  C   UNL     1       4.574   7.056  38.974  1.00  0.00     0.002 A 
ENDROOT
BRANCH   6  10
ATOM     10  C   UNL     1       6.639   5.081  41.539  1.00  0.00     0.250 C 
ATOM     11  O   UNL     1       6.508   4.047  42.224  1.00  0.00    -0.269 OA
ATOM     12  N   UNL     1       7.693   5.960  41.787  1.00  0.00    -0.366 N 
ATOM     13  H   UNL     1       7.848   6.811  41.256  1.00  0.00     0.159 HD
ATOM     14  H   UNL     1       8.357   5.769  42.530  1.00  0.00     0.159 HD
ENDBRANCH   6  10
BRANCH   1  15
ATOM     15  C   UNL     1       3.880   1.322  38.750  1.00  0.00     0.065 A 
ATOM     16  C   UNL     1       3.294   0.595  39.786  1.00  0.00     0.028 A 
ATOM     17  C   UNL     1       4.208   0.686  37.551  1.00  0.00     0.028 A 
ATOM     18  C   UNL     1       3.037  -0.766  39.625  1.00  0.00     0.006 A 
ATOM     19  C   UNL     1       3.951  -0.675  37.390  1.00  0.00     0.006 A 
ATOM     20  C   UNL     1       3.365  -1.402  38.428  1.00  0.00    -0.043 A 
BRANCH  20  21
ATOM     21  C   UNL     1       3.087  -2.883  38.253  1.00  0.00     0.033 C 
ATOM     22  C   UNL     1       1.733  -3.133  37.567  1.00  0.00     0.011 C 
ATOM     23  C   UNL     1       3.169  -3.649  39.587  1.00  0.00     0.089 C 
ATOM     24  C   UNL     1       1.464  -4.631  37.453  1.00  0.00     0.016 C 
ATOM     25  N   UNL     1       2.926  -5.081  39.394  1.00  0.00    -0.316 NA
ATOM     26  C   UNL     1       1.610  -5.326  38.805  1.00  0.00     0.081 C 
ATOM     27  H   UNL     1       2.985  -5.555  40.295  1.00  0.00     0.122 HD
ENDBRANCH  20  21
ENDBRANCH   1  15
TORSDOF 3
ENDMDL
MODEL 17
REMARK VINA RESULT:    -8.592      5.128      7.898
REMARK INTER + INTRA:         -10.928
REMARK INTER:                 -10.213
REMARK INTRA:                  -0.715
REMARK UNBOUND:                -0.829
REMARK SMILES NC(=O)c1cccc2cn(-c3ccc([C@@H]4CCCNC4)cc3)nc12
REMARK SMILES IDX 10 1 23 2 8 3 9 4 24 5 4 6 7 7 5 8 6 9 2 10 3 11 1 12 11 15
REMARK SMILES IDX 12 16 22 17 13 18 21 19 14 20 15 21 16 22 20 23 17 24 19 25
REMARK SMILES IDX 18 26
REMARK H PARENT 1 13 1 14 19 27
ROOT
ATOM      1  N   UNL     1       3.114  -0.962  40.637  1.00  0.00    -0.240 N 
ATOM      2  N   UNL     1       2.875  -1.940  41.532  1.00  0.00    -0.167 NA
ATOM      3  C   UNL     1       1.678  -2.211  39.620  1.00  0.00     0.021 A 
ATOM      4  C   UNL     1       2.421  -1.074  39.468  1.00  0.00     0.123 A 
ATOM      5  C   UNL     1       1.979  -2.742  40.928  1.00  0.00     0.105 A 
ATOM      6  C   UNL     1       1.361  -3.922  41.381  1.00  0.00     0.067 A 
ATOM      7  C   UNL     1       0.804  -2.740  38.679  1.00  0.00     0.012 A 
ATOM      8  C   UNL     1       0.465  -4.485  40.446  1.00  0.00     0.016 A 
ATOM      9  C   UNL     1       0.201  -3.919  39.158  1.00  0.00     0.002 A 
ENDROOT
BRANCH   6  10
ATOM     10  C   UNL     1       1.616  -4.510  42.678  1.00  0.00     0.250 C 
ATOM     11  O   UNL     1       0.890  -5.411  43.144  1.00  0.00    -0.269 OA
ATOM     12  N   UNL     1       2.718  -4.051  43.400  1.00  0.00    -0.366 N 
ATOM     13  H   UNL     1       3.343  -3.326  43.066  1.00  0.00     0.159 HD
ATOM     14  H   UNL     1       2.934  -4.443  44.311  1.00  0.00     0.159 HD
ENDBRANCH   6  10
BRANCH   1  15
ATOM     15  C   UNL     1       4.005   0.051  40.941  1.00  0.00     0.065 A 
ATOM     16  C   UNL     1       4.330   0.319  42.271  1.00  0.00     0.028 A 
ATOM     17  C   UNL     1       4.580   0.805  39.917  1.00  0.00     0.028 A 
ATOM     18  C   UNL     1       5.229   1.340  42.578  1.00  0.00     0.006 A 
ATOM     19  C   UNL     1       5.478   1.827  40.224  1.00  0.00     0.006 A 
ATOM     20  C   UNL     1       5.803   2.095  41.554  1.00  0.00    -0.043 A 
BRANCH  20  21
ATOM     21  C   UNL     1       6.780   3.207  41.888  1.00  0.00     0.033 C 
ATOM     22  C   UNL     1       7.124   3.235  43.386  1.00  0.00     0.011 C 
ATOM     23  C   UNL     1       6.269   4.584  41.422  1.00  0.00     0.089 C 
ATOM     24  C   UNL     1       8.067   4.396  43.692  1.00  0.00     0.016 C 
ATOM     25  N   UNL     1       7.237   5.641  41.726  1.00  0.00    -0.316 NA
ATOM     26  C   UNL     1       7.516   5.716  43.160  1.00  0.00     0.081 C 
ATOM     27  H   UNL     1       6.866   6.536  41.407  1.00  0.00     0.122 HD
ENDBRANCH  20  21
ENDBRANCH   1  15
TORSDOF 3
ENDMDL
MODEL 18
REMARK VINA RESULT:    -8.511      4.615      6.617
REMARK INTER + INTRA:         -10.832
REMARK INTER:                 -10.041
REMARK INTRA:                  -0.791
REMARK UNBOUND:                -0.829
REMARK SMILES NC(=O)c1cccc2cn(-c3ccc([C@@H]4CCCNC4)cc3)nc12
REMARK SMILES IDX 10 1 23 2 8 3 9 4 24 5 4 6 7 7 5 8 6 9 2 10 3 11 1 12 11 15
REMARK SMILES IDX 12 16 22 17 13 18 21 19 14 20 15 21 16 22 20 23 17 24 19 25
REMARK SMILES IDX 18 26
REMARK H PARENT 1 13 1 14 19 27
ROOT
ATOM      1  N   UNL     1       3.825  -0.048  40.094  1.00  0.00    -0.240 N 
ATOM      2  N   UNL     1       2.580  -0.265  40.561  1.00  0.00    -0.167 NA
ATOM      3  C   UNL     1       2.986  -1.401  38.636  1.00  0.00     0.021 A 
ATOM      4  C   UNL     1       4.124  -0.707  38.938  1.00  0.00     0.123 A 
ATOM      5  C   UNL     1       2.025  -1.109  39.672  1.00  0.00     0.105 A 
ATOM      6  C   UNL     1       0.740  -1.682  39.639  1.00  0.00     0.067 A 
ATOM      7  C   UNL     1       2.810  -2.227  37.535  1.00  0.00     0.012 A 
ATOM      8  C   UNL     1       0.529  -2.529  38.529  1.00  0.00     0.016 A 
ATOM      9  C   UNL     1       1.517  -2.787  37.526  1.00  0.00     0.002 A 
ENDROOT
BRANCH   6  10
ATOM     10  C   UNL     1      -0.271  -1.434  40.643  1.00  0.00     0.250 C 
ATOM     11  O   UNL     1      -1.488  -1.495  40.376  1.00  0.00    -0.269 OA
ATOM     12  N   UNL     1       0.151  -1.137  41.939  1.00  0.00    -0.366 N 
ATOM     13  H   UNL     1       1.126  -1.081  42.210  1.00  0.00     0.159 HD
ATOM     14  H   UNL     1      -0.529  -0.963  42.672  1.00  0.00     0.159 HD
ENDBRANCH   6  10
BRANCH   1  15
ATOM     15  C   UNL     1       4.685   0.790  40.780  1.00  0.00     0.065 A 
ATOM     16  C   UNL     1       5.507   1.672  40.078  1.00  0.00     0.028 A 
ATOM     17  C   UNL     1       4.729   0.754  42.174  1.00  0.00     0.028 A 
ATOM     18  C   UNL     1       6.373   2.517  40.770  1.00  0.00     0.006 A 
ATOM     19  C   UNL     1       5.596   1.600  42.866  1.00  0.00     0.006 A 
ATOM     20  C   UNL     1       6.419   2.482  42.164  1.00  0.00    -0.043 A 
BRANCH  20  21
ATOM     21  C   UNL     1       7.364   3.401  42.917  1.00  0.00     0.033 C 
ATOM     22  C   UNL     1       7.092   4.880  42.602  1.00  0.00     0.011 C 
ATOM     23  C   UNL     1       8.841   3.052  42.655  1.00  0.00     0.089 C 
ATOM     24  C   UNL     1       8.091   5.772  43.336  1.00  0.00     0.016 C 
ATOM     25  N   UNL     1       9.737   3.930  43.412  1.00  0.00    -0.316 NA
ATOM     26  C   UNL     1       9.528   5.336  43.065  1.00  0.00     0.081 C 
ATOM     27  H   UNL     1      10.704   3.674  43.214  1.00  0.00     0.122 HD
ENDBRANCH  20  21
ENDBRANCH   1  15
TORSDOF 3
ENDMDL
MODEL 19
REMARK VINA RESULT:    -8.509      5.806      8.557
REMARK INTER + INTRA:         -10.830
REMARK INTER:                  -9.997
REMARK INTRA:                  -0.833
REMARK UNBOUND:                -0.829
REMARK SMILES NC(=O)c1cccc2cn(-c3ccc([C@@H]4CCCNC4)cc3)nc12
REMARK SMILES IDX 10 1 23 2 8 3 9 4 24 5 4 6 7 7 5 8 6 9 2 10 3 11 1 12 11 15
REMARK SMILES IDX 12 16 22 17 13 18 21 19 14 20 15 21 16 22 20 23 17 24 19 25
REMARK SMILES IDX 18 26
REMARK H PARENT 1 13 1 14 19 27
ROOT
ATOM      1  N   UNL     1       2.609  -2.328  40.583  1.00  0.00    -0.240 N 
ATOM      2  N   UNL     1       2.274  -3.315  41.437  1.00  0.00    -0.167 NA
ATOM      3  C   UNL     1       1.598  -3.750  39.312  1.00  0.00     0.021 A 
ATOM      4  C   UNL     1       2.227  -2.536  39.290  1.00  0.00     0.123 A 
ATOM      5  C   UNL     1       1.639  -4.223  40.675  1.00  0.00     0.105 A 
ATOM      6  C   UNL     1       1.065  -5.461  41.020  1.00  0.00     0.067 A 
ATOM      7  C   UNL     1       1.033  -4.389  38.217  1.00  0.00     0.012 A 
ATOM      8  C   UNL     1       0.481  -6.136  39.926  1.00  0.00     0.016 A 
ATOM      9  C   UNL     1       0.467  -5.624  38.590  1.00  0.00     0.002 A 
ENDROOT
BRANCH   6  10
ATOM     10  C   UNL     1       1.070  -5.997  42.364  1.00  0.00     0.250 C 
ATOM     11  O   UNL     1       0.039  -6.461  42.888  1.00  0.00    -0.269 OA
ATOM     12  N   UNL     1       2.277  -5.999  43.063  1.00  0.00    -0.366 N 
ATOM     13  H   UNL     1       3.146  -5.640  42.682  1.00  0.00     0.159 HD
ATOM     14  H   UNL     1       2.323  -6.372  44.006  1.00  0.00     0.159 HD
ENDBRANCH   6  10
BRANCH   1  15
ATOM     15  C   UNL     1       3.287  -1.214  41.044  1.00  0.00     0.065 A 
ATOM     16  C   UNL     1       4.408  -1.367  41.859  1.00  0.00     0.028 A 
ATOM     17  C   UNL     1       2.849   0.063  40.692  1.00  0.00     0.028 A 
ATOM     18  C   UNL     1       5.092  -0.244  42.322  1.00  0.00     0.006 A 
ATOM     19  C   UNL     1       3.533   1.187  41.156  1.00  0.00     0.006 A 
ATOM     20  C   UNL     1       4.655   1.033  41.972  1.00  0.00    -0.043 A 
BRANCH  20  21
ATOM     21  C   UNL     1       5.398   2.257  42.478  1.00  0.00     0.033 C 
ATOM     22  C   UNL     1       6.087   3.019  41.335  1.00  0.00     0.011 C 
ATOM     23  C   UNL     1       6.410   1.902  43.583  1.00  0.00     0.089 C 
ATOM     24  C   UNL     1       6.864   4.212  41.885  1.00  0.00     0.016 C 
ATOM     25  N   UNL     1       7.097   3.098  44.079  1.00  0.00    -0.316 NA
ATOM     26  C   UNL     1       7.811   3.789  43.006  1.00  0.00     0.081 C 
ATOM     27  H   UNL     1       7.759   2.827  44.805  1.00  0.00     0.122 HD
ENDBRANCH  20  21
ENDBRANCH   1  15
TORSDOF 3
ENDMDL
MODEL 20
REMARK VINA RESULT:    -8.366      5.664      7.215
REMARK INTER + INTRA:         -10.662
REMARK INTER:                  -9.833
REMARK INTRA:                  -0.829
REMARK UNBOUND:                -0.829
REMARK SMILES NC(=O)c1cccc2cn(-c3ccc([C@@H]4CCCNC4)cc3)nc12
REMARK SMILES IDX 10 1 23 2 8 3 9 4 24 5 4 6 7 7 5 8 6 9 2 10 3 11 1 12 11 15
REMARK SMILES IDX 12 16 22 17 13 18 21 19 14 20 15 21 16 22 20 23 17 24 19 25
REMARK SMILES IDX 18 26
REMARK H PARENT 1 13 1 14 19 27
ROOT
ATOM      1  N   UNL     1       4.754  -1.109  41.731  1.00  0.00    -0.240 N 
ATOM      2  N   UNL     1       6.012  -1.127  41.250  1.00  0.00    -0.167 NA
ATOM      3  C   UNL     1       5.552   0.788  42.382  1.00  0.00     0.021 A 
ATOM      4  C   UNL     1       4.422   0.021  42.421  1.00  0.00     0.123 A 
ATOM      5  C   UNL     1       6.542   0.046  41.639  1.00  0.00     0.105 A 
ATOM      6  C   UNL     1       7.826   0.582  41.425  1.00  0.00     0.067 A 
ATOM      7  C   UNL     1       5.698   2.043  42.957  1.00  0.00     0.012 A 
ATOM      8  C   UNL     1       8.007   1.860  41.998  1.00  0.00     0.016 A 
ATOM      9  C   UNL     1       6.991   2.555  42.728  1.00  0.00     0.002 A 
ENDROOT
BRANCH   6  10
ATOM     10  C   UNL     1       8.866  -0.106  40.692  1.00  0.00     0.250 C 
ATOM     11  O   UNL     1       9.959  -0.395  41.219  1.00  0.00    -0.269 OA
ATOM     12  N   UNL     1       8.609  -0.459  39.367  1.00  0.00    -0.366 N 
ATOM     13  H   UNL     1       7.737  -0.254  38.892  1.00  0.00     0.159 HD
ATOM     14  H   UNL     1       9.311  -0.948  38.821  1.00  0.00     0.159 HD
ENDBRANCH   6  10
BRANCH   1  15
ATOM     15  C   UNL     1       3.912  -2.182  41.508  1.00  0.00     0.065 A 
ATOM     16  C   UNL     1       3.182  -2.728  42.563  1.00  0.00     0.028 A 
ATOM     17  C   UNL     1       3.790  -2.718  40.225  1.00  0.00     0.028 A 
ATOM     18  C   UNL     1       2.332  -3.810  42.337  1.00  0.00     0.006 A 
ATOM     19  C   UNL     1       2.940  -3.800  39.999  1.00  0.00     0.006 A 
ATOM     20  C   UNL     1       2.211  -4.347  41.056  1.00  0.00    -0.043 A 
BRANCH  20  21
ATOM     21  C   UNL     1       1.287  -5.526  40.809  1.00  0.00     0.033 C 
ATOM     22  C   UNL     1       1.551  -6.674  41.797  1.00  0.00     0.011 C 
ATOM     23  C   UNL     1       1.367  -6.030  39.356  1.00  0.00     0.089 C 
ATOM     24  C   UNL     1       0.640  -7.860  41.489  1.00  0.00     0.016 C 
ATOM     25  N   UNL     1       0.448  -7.149  39.130  1.00  0.00    -0.316 NA
ATOM     26  C   UNL     1       0.740  -8.271  40.022  1.00  0.00     0.081 C 
ATOM     27  H   UNL     1       0.529  -7.458  38.162  1.00  0.00     0.122 HD
ENDBRANCH  20  21
ENDBRANCH   1  15
TORSDOF 3
ENDMDL
