MODEL 1
REMARK VINA RESULT:    -6.365      0.000      0.000
REMARK INTER + INTRA:         -10.262
REMARK INTER:                  -8.597
REMARK INTRA:                  -1.665
REMARK UNBOUND:                -1.665
REMARK SMILES COC(=O)C1=C(C)NC(C)=C(C(=O)OC(C)C)[C@@H]1c1cccc2nonc12
REMARK SMILES IDX 7 1 6 2 5 3 18 4 11 5 9 6 8 7 10 8 3 10 4 11 2 12 1 13 19 14
REMARK SMILES IDX 20 15 27 16 21 17 26 18 23 19 22 20 25 21 24 22 12 23 13 24
REMARK SMILES IDX 14 25 15 26 16 27 17 28
REMARK H PARENT 8 9
ROOT
ATOM      1  C   UNL     1     153.053 160.298 143.985  1.00  0.00     0.065 C 
ATOM      2  C   UNL     1     151.967 160.619 144.979  1.00  0.00     0.023 C 
ATOM      3  C   UNL     1     152.163 161.263 146.153  1.00  0.00     0.068 C 
ATOM      4  C   UNL     1     151.006 161.541 147.107  1.00  0.00     0.100 C 
ATOM      5  C   UNL     1     149.680 160.959 146.631  1.00  0.00     0.068 C 
ATOM      6  C   UNL     1     149.575 160.312 145.449  1.00  0.00     0.023 C 
ATOM      7  N   UNL     1     150.696 160.174 144.646  1.00  0.00    -0.362 N 
ATOM      8  C   UNL     1     148.315 159.665 144.934  1.00  0.00     0.065 C 
ATOM      9  H   UNL     1     150.576 159.729 143.740  1.00  0.00     0.166 HD
ENDROOT
BRANCH   3  10
ATOM     10  C   UNL     1     153.502 161.754 146.548  1.00  0.00     0.336 C 
ATOM     11  O   UNL     1     154.065 162.722 146.061  1.00  0.00    -0.246 OA
BRANCH  10  12
ATOM     12  O   UNL     1     154.000 160.959 147.531  1.00  0.00    -0.466 OA
ATOM     13  C   UNL     1     154.672 161.676 148.567  1.00  0.00     0.282 C 
ENDBRANCH  10  12
ENDBRANCH   3  10
BRANCH   4  14
ATOM     14  C   UNL     1     150.874 163.029 147.408  1.00  0.00    -0.004 A 
ATOM     15  C   UNL     1     150.467 163.949 146.403  1.00  0.00     0.007 A 
ATOM     16  C   UNL     1     151.143 163.651 148.654  1.00  0.00     0.139 A 
ATOM     17  C   UNL     1     150.331 165.346 146.610  1.00  0.00     0.003 A 
ATOM     18  N   UNL     1     151.554 163.110 149.808  1.00  0.00    -0.049 NA
ATOM     19  C   UNL     1     151.003 165.088 148.861  1.00  0.00     0.135 A 
ATOM     20  C   UNL     1     150.591 165.967 147.843  1.00  0.00     0.034 A 
ATOM     21  O   UNL     1     151.661 164.155 150.706  1.00  0.00    -0.243 OA
ATOM     22  N   UNL     1     151.330 165.368 150.129  1.00  0.00    -0.050 NA
ENDBRANCH   4  14
BRANCH   5  23
ATOM     23  C   UNL     1     148.555 161.133 147.573  1.00  0.00     0.337 C 
ATOM     24  O   UNL     1     147.664 161.951 147.403  1.00  0.00    -0.246 OA
BRANCH  23  25
ATOM     25  O   UNL     1     148.624 160.204 148.556  1.00  0.00    -0.460 OA
BRANCH  25  26
ATOM     26  C   UNL     1     147.816 160.451 149.720  1.00  0.00     0.170 C 
ATOM     27  C   UNL     1     147.348 159.096 150.237  1.00  0.00     0.052 C 
ATOM     28  C   UNL     1     148.647 161.176 150.772  1.00  0.00     0.052 C 
ENDBRANCH  25  26
ENDBRANCH  23  25
ENDBRANCH   5  23
TORSDOF 6
ENDMDL
MODEL 2
REMARK VINA RESULT:    -6.359      3.073      5.549
REMARK INTER + INTRA:         -10.254
REMARK INTER:                  -9.235
REMARK INTRA:                  -1.019
REMARK UNBOUND:                -1.665
REMARK SMILES COC(=O)C1=C(C)NC(C)=C(C(=O)OC(C)C)[C@@H]1c1cccc2nonc12
REMARK SMILES IDX 7 1 6 2 5 3 18 4 11 5 9 6 8 7 10 8 3 10 4 11 2 12 1 13 19 14
REMARK SMILES IDX 20 15 27 16 21 17 26 18 23 19 22 20 25 21 24 22 12 23 13 24
REMARK SMILES IDX 14 25 15 26 16 27 17 28
REMARK H PARENT 8 9
ROOT
ATOM      1  C   UNL     1     149.211 165.019 146.544  1.00  0.00     0.065 C 
ATOM      2  C   UNL     1     150.271 164.485 147.473  1.00  0.00     0.023 C 
ATOM      3  C   UNL     1     151.143 165.251 148.168  1.00  0.00     0.068 C 
ATOM      4  C   UNL     1     152.193 164.627 149.082  1.00  0.00     0.100 C 
ATOM      5  C   UNL     1     152.188 163.104 149.051  1.00  0.00     0.068 C 
ATOM      6  C   UNL     1     151.291 162.414 148.312  1.00  0.00     0.023 C 
ATOM      7  N   UNL     1     150.349 163.103 147.566  1.00  0.00    -0.362 N 
ATOM      8  C   UNL     1     151.254 160.912 148.190  1.00  0.00     0.065 C 
ATOM      9  H   UNL     1     149.654 162.558 147.061  1.00  0.00     0.166 HD
ENDROOT
BRANCH   3  10
ATOM     10  C   UNL     1     151.096 166.729 148.097  1.00  0.00     0.336 C 
ATOM     11  O   UNL     1     150.210 167.425 148.568  1.00  0.00    -0.246 OA
BRANCH  10  12
ATOM     12  O   UNL     1     152.188 167.182 147.428  1.00  0.00    -0.466 OA
ATOM     13  C   UNL     1     152.194 168.595 147.224  1.00  0.00     0.282 C 
ENDBRANCH  10  12
ENDBRANCH   3  10
BRANCH   4  14
ATOM     14  C   UNL     1     152.073 165.147 150.508  1.00  0.00    -0.004 A 
ATOM     15  C   UNL     1     152.951 166.153 151.000  1.00  0.00     0.007 A 
ATOM     16  C   UNL     1     151.135 164.708 151.476  1.00  0.00     0.139 A 
ATOM     17  C   UNL     1     152.901 166.678 152.318  1.00  0.00     0.003 A 
ATOM     18  N   UNL     1     150.176 163.778 151.376  1.00  0.00    -0.049 NA
ATOM     19  C   UNL     1     151.088 165.249 152.830  1.00  0.00     0.135 A 
ATOM     20  C   UNL     1     151.970 166.249 153.279  1.00  0.00     0.034 A 
ATOM     21  O   UNL     1     149.547 163.739 152.606  1.00  0.00    -0.243 OA
ATOM     22  N   UNL     1     150.107 164.635 153.500  1.00  0.00    -0.050 NA
ENDBRANCH   4  14
BRANCH   5  23
ATOM     23  C   UNL     1     153.250 162.466 149.856  1.00  0.00     0.337 C 
ATOM     24  O   UNL     1     153.025 161.610 150.699  1.00  0.00    -0.246 OA
BRANCH  23  25
ATOM     25  O   UNL     1     154.467 162.898 149.447  1.00  0.00    -0.460 OA
BRANCH  25  26
ATOM     26  C   UNL     1     155.343 161.898 148.898  1.00  0.00     0.170 C 
ATOM     27  C   UNL     1     154.866 161.614 147.480  1.00  0.00     0.052 C 
ATOM     28  C   UNL     1     156.774 162.423 148.895  1.00  0.00     0.052 C 
ENDBRANCH  25  26
ENDBRANCH  23  25
ENDBRANCH   5  23
TORSDOF 6
ENDMDL
MODEL 3
REMARK VINA RESULT:    -6.335      4.858      6.660
REMARK INTER + INTRA:         -10.221
REMARK INTER:                  -8.712
REMARK INTRA:                  -1.509
REMARK UNBOUND:                -1.665
REMARK SMILES COC(=O)C1=C(C)NC(C)=C(C(=O)OC(C)C)[C@@H]1c1cccc2nonc12
REMARK SMILES IDX 7 1 6 2 5 3 18 4 11 5 9 6 8 7 10 8 3 10 4 11 2 12 1 13 19 14
REMARK SMILES IDX 20 15 27 16 21 17 26 18 23 19 22 20 25 21 24 22 12 23 13 24
REMARK SMILES IDX 14 25 15 26 16 27 17 28
REMARK H PARENT 8 9
ROOT
ATOM      1  C   UNL     1     153.048 153.839 152.780  1.00  0.00     0.065 C 
ATOM      2  C   UNL     1     152.441 155.008 152.047  1.00  0.00     0.023 C 
ATOM      3  C   UNL     1     153.092 156.159 151.762  1.00  0.00     0.068 C 
ATOM      4  C   UNL     1     152.399 157.299 151.022  1.00  0.00     0.100 C 
ATOM      5  C   UNL     1     150.929 157.021 150.732  1.00  0.00     0.068 C 
ATOM      6  C   UNL     1     150.350 155.847 151.068  1.00  0.00     0.023 C 
ATOM      7  N   UNL     1     151.108 154.868 151.690  1.00  0.00    -0.362 N 
ATOM      8  C   UNL     1     148.894 155.518 150.862  1.00  0.00     0.065 C 
ATOM      9  H   UNL     1     150.660 153.976 151.884  1.00  0.00     0.166 HD
ENDROOT
BRANCH   3  10
ATOM     10  C   UNL     1     154.513 156.351 152.126  1.00  0.00     0.336 C 
ATOM     11  O   UNL     1     155.440 155.674 151.710  1.00  0.00    -0.246 OA
BRANCH  10  12
ATOM     12  O   UNL     1     154.619 157.393 152.992  1.00  0.00    -0.466 OA
ATOM     13  C   UNL     1     155.727 158.253 152.727  1.00  0.00     0.282 C 
ENDBRANCH  10  12
ENDBRANCH   3  10
BRANCH   4  14
ATOM     14  C   UNL     1     153.147 157.677 149.750  1.00  0.00    -0.004 A 
ATOM     15  C   UNL     1     153.270 156.759 148.670  1.00  0.00     0.007 A 
ATOM     16  C   UNL     1     153.793 158.915 149.503  1.00  0.00     0.139 A 
ATOM     17  C   UNL     1     153.958 157.041 147.461  1.00  0.00     0.003 A 
ATOM     18  N   UNL     1     153.896 159.996 150.287  1.00  0.00    -0.049 NA
ATOM     19  C   UNL     1     154.501 159.198 148.259  1.00  0.00     0.135 A 
ATOM     20  C   UNL     1     154.596 158.267 147.209  1.00  0.00     0.034 A 
ATOM     21  O   UNL     1     154.627 160.923 149.569  1.00  0.00    -0.243 OA
ATOM     22  N   UNL     1     155.003 160.437 148.329  1.00  0.00    -0.050 NA
ENDBRANCH   4  14
BRANCH   5  23
ATOM     23  C   UNL     1     150.203 158.139 150.094  1.00  0.00     0.337 C 
ATOM     24  O   UNL     1     149.987 158.197 148.893  1.00  0.00    -0.246 OA
BRANCH  23  25
ATOM     25  O   UNL     1     149.749 158.998 151.039  1.00  0.00    -0.460 OA
BRANCH  25  26
ATOM     26  C   UNL     1     148.596 159.781 150.684  1.00  0.00     0.170 C 
ATOM     27  C   UNL     1     147.368 158.927 150.975  1.00  0.00     0.052 C 
ATOM     28  C   UNL     1     148.576 161.061 151.510  1.00  0.00     0.052 C 
ENDBRANCH  25  26
ENDBRANCH  23  25
ENDBRANCH   5  23
TORSDOF 6
ENDMDL
MODEL 4
REMARK VINA RESULT:    -6.319      4.278      8.019
REMARK INTER + INTRA:         -10.200
REMARK INTER:                  -8.502
REMARK INTRA:                  -1.699
REMARK UNBOUND:                -1.665
REMARK SMILES COC(=O)C1=C(C)NC(C)=C(C(=O)OC(C)C)[C@@H]1c1cccc2nonc12
REMARK SMILES IDX 7 1 6 2 5 3 18 4 11 5 9 6 8 7 10 8 3 10 4 11 2 12 1 13 19 14
REMARK SMILES IDX 20 15 27 16 21 17 26 18 23 19 22 20 25 21 24 22 12 23 13 24
REMARK SMILES IDX 14 25 15 26 16 27 17 28
REMARK H PARENT 8 9
ROOT
ATOM      1  C   UNL     1     145.980 157.867 145.199  1.00  0.00     0.065 C 
ATOM      2  C   UNL     1     146.653 158.073 146.533  1.00  0.00     0.023 C 
ATOM      3  C   UNL     1     146.346 157.396 147.663  1.00  0.00     0.068 C 
ATOM      4  C   UNL     1     147.073 157.674 148.975  1.00  0.00     0.100 C 
ATOM      5  C   UNL     1     148.083 158.810 148.874  1.00  0.00     0.068 C 
ATOM      6  C   UNL     1     148.316 159.449 147.706  1.00  0.00     0.023 C 
ATOM      7  N   UNL     1     147.626 159.061 146.569  1.00  0.00    -0.362 N 
ATOM      8  C   UNL     1     149.258 160.612 147.537  1.00  0.00     0.065 C 
ATOM      9  H   UNL     1     147.860 159.523 145.694  1.00  0.00     0.166 HD
ENDROOT
BRANCH   3  10
ATOM     10  C   UNL     1     145.315 156.335 147.669  1.00  0.00     0.336 C 
ATOM     11  O   UNL     1     145.455 155.219 147.193  1.00  0.00    -0.246 OA
BRANCH  10  12
ATOM     12  O   UNL     1     144.195 156.799 148.284  1.00  0.00    -0.466 OA
ATOM     13  C   UNL     1     143.807 156.037 149.427  1.00  0.00     0.282 C 
ENDBRANCH  10  12
ENDBRANCH   3  10
BRANCH   4  14
ATOM     14  C   UNL     1     147.721 156.413 149.533  1.00  0.00    -0.004 A 
ATOM     15  C   UNL     1     147.385 155.925 150.827  1.00  0.00     0.007 A 
ATOM     16  C   UNL     1     148.697 155.620 148.877  1.00  0.00     0.139 A 
ATOM     17  C   UNL     1     147.954 154.763 151.412  1.00  0.00     0.003 A 
ATOM     18  N   UNL     1     149.256 155.780 147.670  1.00  0.00    -0.049 NA
ATOM     19  C   UNL     1     149.279 154.428 149.483  1.00  0.00     0.135 A 
ATOM     20  C   UNL     1     148.917 153.973 150.764  1.00  0.00     0.034 A 
ATOM     21  O   UNL     1     150.144 154.733 147.517  1.00  0.00    -0.243 OA
ATOM     22  N   UNL     1     150.165 153.906 148.627  1.00  0.00    -0.050 NA
ENDBRANCH   4  14
BRANCH   5  23
ATOM     23  C   UNL     1     148.742 159.166 150.148  1.00  0.00     0.337 C 
ATOM     24  O   UNL     1     148.133 159.581 151.122  1.00  0.00    -0.246 OA
BRANCH  23  25
ATOM     25  O   UNL     1     150.063 158.870 150.086  1.00  0.00    -0.460 OA
BRANCH  25  26
ATOM     26  C   UNL     1     150.655 158.357 151.292  1.00  0.00     0.170 C 
ATOM     27  C   UNL     1     151.400 157.082 150.917  1.00  0.00     0.052 C 
ATOM     28  C   UNL     1     151.609 159.393 151.872  1.00  0.00     0.052 C 
ENDBRANCH  25  26
ENDBRANCH  23  25
ENDBRANCH   5  23
TORSDOF 6
ENDMDL
MODEL 5
REMARK VINA RESULT:    -6.312      8.705     12.342
REMARK INTER + INTRA:         -10.190
REMARK INTER:                  -8.692
REMARK INTRA:                  -1.498
REMARK UNBOUND:                -1.665
REMARK SMILES COC(=O)C1=C(C)NC(C)=C(C(=O)OC(C)C)[C@@H]1c1cccc2nonc12
REMARK SMILES IDX 7 1 6 2 5 3 18 4 11 5 9 6 8 7 10 8 3 10 4 11 2 12 1 13 19 14
REMARK SMILES IDX 20 15 27 16 21 17 26 18 23 19 22 20 25 21 24 22 12 23 13 24
REMARK SMILES IDX 14 25 15 26 16 27 17 28
REMARK H PARENT 8 9
ROOT
ATOM      1  C   UNL     1     151.681 174.705 156.264  1.00  0.00     0.065 C 
ATOM      2  C   UNL     1     151.088 173.842 155.180  1.00  0.00     0.023 C 
ATOM      3  C   UNL     1     151.089 172.489 155.186  1.00  0.00     0.068 C 
ATOM      4  C   UNL     1     150.472 171.691 154.041  1.00  0.00     0.100 C 
ATOM      5  C   UNL     1     149.954 172.568 152.908  1.00  0.00     0.068 C 
ATOM      6  C   UNL     1     150.008 173.917 152.974  1.00  0.00     0.023 C 
ATOM      7  N   UNL     1     150.545 174.522 154.099  1.00  0.00    -0.362 N 
ATOM      8  C   UNL     1     149.564 174.848 151.876  1.00  0.00     0.065 C 
ATOM      9  H   UNL     1     150.525 175.537 154.145  1.00  0.00     0.166 HD
ENDROOT
BRANCH   3  10
ATOM     10  C   UNL     1     151.658 171.724 156.317  1.00  0.00     0.336 C 
ATOM     11  O   UNL     1     151.014 171.267 157.248  1.00  0.00    -0.246 OA
BRANCH  10  12
ATOM     12  O   UNL     1     153.003 171.615 156.155  1.00  0.00    -0.466 OA
ATOM     13  C   UNL     1     153.744 171.762 157.366  1.00  0.00     0.282 C 
ENDBRANCH  10  12
ENDBRANCH   3  10
BRANCH   4  14
ATOM     14  C   UNL     1     149.390 170.743 154.540  1.00  0.00    -0.004 A 
ATOM     15  C   UNL     1     148.154 171.237 155.042  1.00  0.00     0.007 A 
ATOM     16  C   UNL     1     149.478 169.328 154.580  1.00  0.00     0.139 A 
ATOM     17  C   UNL     1     147.106 170.413 155.529  1.00  0.00     0.003 A 
ATOM     18  N   UNL     1     150.483 168.524 154.206  1.00  0.00    -0.049 NA
ATOM     19  C   UNL     1     148.399 168.486 155.083  1.00  0.00     0.135 A 
ATOM     20  C   UNL     1     147.187 169.012 155.566  1.00  0.00     0.034 A 
ATOM     21  O   UNL     1     150.056 167.234 154.454  1.00  0.00    -0.243 OA
ATOM     22  N   UNL     1     148.782 167.207 154.995  1.00  0.00    -0.050 NA
ENDBRANCH   4  14
BRANCH   5  23
ATOM     23  C   UNL     1     149.430 171.826 151.742  1.00  0.00     0.337 C 
ATOM     24  O   UNL     1     148.249 171.820 151.431  1.00  0.00    -0.246 OA
BRANCH  23  25
ATOM     25  O   UNL     1     150.451 171.263 151.052  1.00  0.00    -0.460 OA
BRANCH  25  26
ATOM     26  C   UNL     1     150.317 169.863 150.750  1.00  0.00     0.170 C 
ATOM     27  C   UNL     1     149.864 169.759 149.299  1.00  0.00     0.052 C 
ATOM     28  C   UNL     1     151.658 169.168 150.952  1.00  0.00     0.052 C 
ENDBRANCH  25  26
ENDBRANCH  23  25
ENDBRANCH   5  23
TORSDOF 6
ENDMDL
MODEL 6
REMARK VINA RESULT:    -6.298      2.101      5.247
REMARK INTER + INTRA:         -10.172
REMARK INTER:                  -8.760
REMARK INTRA:                  -1.412
REMARK UNBOUND:                -1.665
REMARK SMILES COC(=O)C1=C(C)NC(C)=C(C(=O)OC(C)C)[C@@H]1c1cccc2nonc12
REMARK SMILES IDX 7 1 6 2 5 3 18 4 11 5 9 6 8 7 10 8 3 10 4 11 2 12 1 13 19 14
REMARK SMILES IDX 20 15 27 16 21 17 26 18 23 19 22 20 25 21 24 22 12 23 13 24
REMARK SMILES IDX 14 25 15 26 16 27 17 28
REMARK H PARENT 8 9
ROOT
ATOM      1  C   UNL     1     151.687 160.149 152.346  1.00  0.00     0.065 C 
ATOM      2  C   UNL     1     151.990 160.564 150.929  1.00  0.00     0.023 C 
ATOM      3  C   UNL     1     151.069 161.014 150.045  1.00  0.00     0.068 C 
ATOM      4  C   UNL     1     151.461 161.406 148.624  1.00  0.00     0.100 C 
ATOM      5  C   UNL     1     152.933 161.163 148.317  1.00  0.00     0.068 C 
ATOM      6  C   UNL     1     153.784 160.693 149.256  1.00  0.00     0.023 C 
ATOM      7  N   UNL     1     153.311 160.427 150.531  1.00  0.00    -0.362 N 
ATOM      8  C   UNL     1     155.238 160.380 149.016  1.00  0.00     0.065 C 
ATOM      9  H   UNL     1     153.984 160.124 151.231  1.00  0.00     0.166 HD
ENDROOT
BRANCH   3  10
ATOM     10  C   UNL     1     149.649 161.174 150.427  1.00  0.00     0.336 C 
ATOM     11  O   UNL     1     149.228 161.991 151.231  1.00  0.00    -0.246 OA
BRANCH  10  12
ATOM     12  O   UNL     1     148.895 160.272 149.745  1.00  0.00    -0.466 OA
ATOM     13  C   UNL     1     147.784 160.851 149.061  1.00  0.00     0.282 C 
ENDBRANCH  10  12
ENDBRANCH   3  10
BRANCH   4  14
ATOM     14  C   UNL     1     151.065 162.844 148.312  1.00  0.00    -0.004 A 
ATOM     15  C   UNL     1     150.204 163.149 147.222  1.00  0.00     0.007 A 
ATOM     16  C   UNL     1     151.495 163.996 149.019  1.00  0.00     0.139 A 
ATOM     17  C   UNL     1     149.801 164.464 146.870  1.00  0.00     0.003 A 
ATOM     18  N   UNL     1     152.309 164.093 150.078  1.00  0.00    -0.049 NA
ATOM     19  C   UNL     1     151.079 165.345 148.653  1.00  0.00     0.135 A 
ATOM     20  C   UNL     1     150.220 165.607 147.570  1.00  0.00     0.034 A 
ATOM     21  O   UNL     1     152.398 165.440 150.373  1.00  0.00    -0.243 OA
ATOM     22  N   UNL     1     151.650 166.210 149.499  1.00  0.00    -0.050 NA
ENDBRANCH   4  14
BRANCH   5  23
ATOM     23  C   UNL     1     153.329 161.449 146.922  1.00  0.00     0.337 C 
ATOM     24  O   UNL     1     153.967 162.440 146.600  1.00  0.00    -0.246 OA
BRANCH  23  25
ATOM     25  O   UNL     1     152.969 160.422 146.116  1.00  0.00    -0.460 OA
BRANCH  25  26
ATOM     26  C   UNL     1     153.586 160.388 144.817  1.00  0.00     0.170 C 
ATOM     27  C   UNL     1     154.716 159.369 144.884  1.00  0.00     0.052 C 
ATOM     28  C   UNL     1     152.551 159.985 143.773  1.00  0.00     0.052 C 
ENDBRANCH  25  26
ENDBRANCH  23  25
ENDBRANCH   5  23
TORSDOF 6
ENDMDL
MODEL 7
REMARK VINA RESULT:    -6.292      3.809      6.080
REMARK INTER + INTRA:         -10.164
REMARK INTER:                  -8.323
REMARK INTRA:                  -1.841
REMARK UNBOUND:                -1.665
REMARK SMILES COC(=O)C1=C(C)NC(C)=C(C(=O)OC(C)C)[C@@H]1c1cccc2nonc12
REMARK SMILES IDX 7 1 6 2 5 3 18 4 11 5 9 6 8 7 10 8 3 10 4 11 2 12 1 13 19 14
REMARK SMILES IDX 20 15 27 16 21 17 26 18 23 19 22 20 25 21 24 22 12 23 13 24
REMARK SMILES IDX 14 25 15 26 16 27 17 28
REMARK H PARENT 8 9
ROOT
ATOM      1  C   UNL     1     154.172 159.759 144.841  1.00  0.00     0.065 C 
ATOM      2  C   UNL     1     154.448 159.505 146.301  1.00  0.00     0.023 C 
ATOM      3  C   UNL     1     153.820 160.129 147.323  1.00  0.00     0.068 C 
ATOM      4  C   UNL     1     154.167 159.817 148.776  1.00  0.00     0.100 C 
ATOM      5  C   UNL     1     155.310 158.820 148.919  1.00  0.00     0.068 C 
ATOM      6  C   UNL     1     155.897 158.255 147.841  1.00  0.00     0.023 C 
ATOM      7  N   UNL     1     155.449 158.584 146.572  1.00  0.00    -0.362 N 
ATOM      8  C   UNL     1     157.064 157.303 147.899  1.00  0.00     0.065 C 
ATOM      9  H   UNL     1     155.873 158.104 145.782  1.00  0.00     0.166 HD
ENDROOT
BRANCH   3  10
ATOM     10  C   UNL     1     152.747 161.119 147.079  1.00  0.00     0.336 C 
ATOM     11  O   UNL     1     151.629 160.852 146.667  1.00  0.00    -0.246 OA
BRANCH  10  12
ATOM     12  O   UNL     1     153.204 162.362 147.384  1.00  0.00    -0.466 OA
ATOM     13  C   UNL     1     152.296 163.133 148.170  1.00  0.00     0.282 C 
ENDBRANCH  10  12
ENDBRANCH   3  10
BRANCH   4  14
ATOM     14  C   UNL     1     152.941 159.361 149.558  1.00  0.00    -0.004 A 
ATOM     15  C   UNL     1     152.247 158.170 149.208  1.00  0.00     0.007 A 
ATOM     16  C   UNL     1     152.360 160.038 150.660  1.00  0.00     0.139 A 
ATOM     17  C   UNL     1     151.096 157.691 149.886  1.00  0.00     0.003 A 
ATOM     18  N   UNL     1     152.730 161.182 151.251  1.00  0.00    -0.049 NA
ATOM     19  C   UNL     1     151.176 159.542 151.353  1.00  0.00     0.135 A 
ATOM     20  C   UNL     1     150.520 158.355 150.981  1.00  0.00     0.034 A 
ATOM     21  O   UNL     1     151.827 161.396 152.275  1.00  0.00    -0.243 OA
ATOM     22  N   UNL     1     150.872 160.396 152.337  1.00  0.00    -0.050 NA
ENDBRANCH   4  14
BRANCH   5  23
ATOM     23  C   UNL     1     155.732 158.561 150.312  1.00  0.00     0.337 C 
ATOM     24  O   UNL     1     156.309 159.389 150.999  1.00  0.00    -0.246 OA
BRANCH  23  25
ATOM     25  O   UNL     1     155.300 157.340 150.709  1.00  0.00    -0.460 OA
BRANCH  25  26
ATOM     26  C   UNL     1     155.311 157.093 152.126  1.00  0.00     0.170 C 
ATOM     27  C   UNL     1     153.896 157.342 152.635  1.00  0.00     0.052 C 
ATOM     28  C   UNL     1     155.737 155.654 152.388  1.00  0.00     0.052 C 
ENDBRANCH  25  26
ENDBRANCH  23  25
ENDBRANCH   5  23
TORSDOF 6
ENDMDL
MODEL 8
REMARK VINA RESULT:    -6.257      4.240      6.591
REMARK INTER + INTRA:         -10.117
REMARK INTER:                  -8.344
REMARK INTRA:                  -1.773
REMARK UNBOUND:                -1.665
REMARK SMILES COC(=O)C1=C(C)NC(C)=C(C(=O)OC(C)C)[C@@H]1c1cccc2nonc12
REMARK SMILES IDX 7 1 6 2 5 3 18 4 11 5 9 6 8 7 10 8 3 10 4 11 2 12 1 13 19 14
REMARK SMILES IDX 20 15 27 16 21 17 26 18 23 19 22 20 25 21 24 22 12 23 13 24
REMARK SMILES IDX 14 25 15 26 16 27 17 28
REMARK H PARENT 8 9
ROOT
ATOM      1  C   UNL     1     149.000 155.665 150.081  1.00  0.00     0.065 C 
ATOM      2  C   UNL     1     149.699 156.946 150.461  1.00  0.00     0.023 C 
ATOM      3  C   UNL     1     150.993 157.033 150.843  1.00  0.00     0.068 C 
ATOM      4  C   UNL     1     151.621 158.371 151.221  1.00  0.00     0.100 C 
ATOM      5  C   UNL     1     150.630 159.529 151.191  1.00  0.00     0.068 C 
ATOM      6  C   UNL     1     149.345 159.351 150.813  1.00  0.00     0.023 C 
ATOM      7  N   UNL     1     148.913 158.089 150.439  1.00  0.00    -0.362 N 
ATOM      8  C   UNL     1     148.295 160.432 150.807  1.00  0.00     0.065 C 
ATOM      9  H   UNL     1     147.956 157.995 150.109  1.00  0.00     0.166 HD
ENDROOT
BRANCH   3  10
ATOM     10  C   UNL     1     151.867 155.839 150.882  1.00  0.00     0.336 C 
ATOM     11  O   UNL     1     152.435 155.355 149.916  1.00  0.00    -0.246 OA
BRANCH  10  12
ATOM     12  O   UNL     1     151.933 155.371 152.156  1.00  0.00    -0.466 OA
ATOM     13  C   UNL     1     153.110 154.611 152.431  1.00  0.00     0.282 C 
ENDBRANCH  10  12
ENDBRANCH   3  10
BRANCH   4  14
ATOM     14  C   UNL     1     152.845 158.675 150.367  1.00  0.00    -0.004 A 
ATOM     15  C   UNL     1     152.746 158.781 148.952  1.00  0.00     0.007 A 
ATOM     16  C   UNL     1     154.166 158.864 150.846  1.00  0.00     0.139 A 
ATOM     17  C   UNL     1     153.844 159.055 148.095  1.00  0.00     0.003 A 
ATOM     18  N   UNL     1     154.633 158.824 152.101  1.00  0.00    -0.049 NA
ATOM     19  C   UNL     1     155.292 159.143 149.961  1.00  0.00     0.135 A 
ATOM     20  C   UNL     1     155.154 159.247 148.565  1.00  0.00     0.034 A 
ATOM     21  O   UNL     1     155.990 159.073 152.015  1.00  0.00    -0.243 OA
ATOM     22  N   UNL     1     156.397 159.264 150.706  1.00  0.00    -0.050 NA
ENDBRANCH   4  14
BRANCH   5  23
ATOM     23  C   UNL     1     151.181 160.825 151.636  1.00  0.00     0.337 C 
ATOM     24  O   UNL     1     151.514 161.048 152.790  1.00  0.00    -0.246 OA
BRANCH  23  25
ATOM     25  O   UNL     1     151.342 161.652 150.574  1.00  0.00    -0.460 OA
BRANCH  25  26
ATOM     26  C   UNL     1     152.367 162.653 150.699  1.00  0.00     0.170 C 
ATOM     27  C   UNL     1     153.347 162.435 149.552  1.00  0.00     0.052 C 
ATOM     28  C   UNL     1     151.737 164.038 150.620  1.00  0.00     0.052 C 
ENDBRANCH  25  26
ENDBRANCH  23  25
ENDBRANCH   5  23
TORSDOF 6
ENDMDL
MODEL 9
REMARK VINA RESULT:    -6.164      3.364      5.549
REMARK INTER + INTRA:          -9.991
REMARK INTER:                  -8.414
REMARK INTRA:                  -1.577
REMARK UNBOUND:                -1.665
REMARK SMILES COC(=O)C1=C(C)NC(C)=C(C(=O)OC(C)C)[C@@H]1c1cccc2nonc12
REMARK SMILES IDX 7 1 6 2 5 3 18 4 11 5 9 6 8 7 10 8 3 10 4 11 2 12 1 13 19 14
REMARK SMILES IDX 20 15 27 16 21 17 26 18 23 19 22 20 25 21 24 22 12 23 13 24
REMARK SMILES IDX 14 25 15 26 16 27 17 28
REMARK H PARENT 8 9
ROOT
ATOM      1  C   UNL     1     151.771 157.370 151.455  1.00  0.00     0.065 C 
ATOM      2  C   UNL     1     151.859 158.818 151.042  1.00  0.00     0.023 C 
ATOM      3  C   UNL     1     152.982 159.424 150.594  1.00  0.00     0.068 C 
ATOM      4  C   UNL     1     152.986 160.899 150.204  1.00  0.00     0.100 C 
ATOM      5  C   UNL     1     151.649 161.588 150.447  1.00  0.00     0.068 C 
ATOM      6  C   UNL     1     150.578 160.910 150.915  1.00  0.00     0.023 C 
ATOM      7  N   UNL     1     150.692 159.554 151.179  1.00  0.00    -0.362 N 
ATOM      8  C   UNL     1     149.240 161.529 151.230  1.00  0.00     0.065 C 
ATOM      9  H   UNL     1     149.856 159.059 151.481  1.00  0.00     0.166 HD
ENDROOT
BRANCH   3  10
ATOM     10  C   UNL     1     154.249 158.676 150.433  1.00  0.00     0.336 C 
ATOM     11  O   UNL     1     154.473 157.859 149.553  1.00  0.00    -0.246 OA
BRANCH  10  12
ATOM     12  O   UNL     1     155.115 159.041 151.414  1.00  0.00    -0.466 OA
ATOM     13  C   UNL     1     155.528 157.959 152.250  1.00  0.00     0.282 C 
ENDBRANCH  10  12
ENDBRANCH   3  10
BRANCH   4  14
ATOM     14  C   UNL     1     153.451 161.095 148.766  1.00  0.00    -0.004 A 
ATOM     15  C   UNL     1     152.609 160.760 147.670  1.00  0.00     0.007 A 
ATOM     16  C   UNL     1     154.715 161.594 148.363  1.00  0.00     0.139 A 
ATOM     17  C   UNL     1     152.979 160.910 146.307  1.00  0.00     0.003 A 
ATOM     18  N   UNL     1     155.754 161.994 149.110  1.00  0.00    -0.049 NA
ATOM     19  C   UNL     1     155.091 161.745 146.962  1.00  0.00     0.135 A 
ATOM     20  C   UNL     1     154.229 161.408 145.903  1.00  0.00     0.034 A 
ATOM     21  O   UNL     1     156.737 162.386 148.222  1.00  0.00    -0.243 OA
ATOM     22  N   UNL     1     156.337 162.230 146.907  1.00  0.00    -0.050 NA
ENDBRANCH   4  14
BRANCH   5  23
ATOM     23  C   UNL     1     151.640 163.038 150.163  1.00  0.00     0.337 C 
ATOM     24  O   UNL     1     151.030 163.531 149.227  1.00  0.00    -0.246 OA
BRANCH  23  25
ATOM     25  O   UNL     1     152.309 163.705 151.134  1.00  0.00    -0.460 OA
BRANCH  25  26
ATOM     26  C   UNL     1     151.593 164.774 151.777  1.00  0.00     0.170 C 
ATOM     27  C   UNL     1     151.491 164.417 153.255  1.00  0.00     0.052 C 
ATOM     28  C   UNL     1     152.351 166.082 151.585  1.00  0.00     0.052 C 
ENDBRANCH  25  26
ENDBRANCH  23  25
ENDBRANCH   5  23
TORSDOF 6
ENDMDL
MODEL 10
REMARK VINA RESULT:    -6.145      4.287      6.109
REMARK INTER + INTRA:          -9.965
REMARK INTER:                  -8.389
REMARK INTRA:                  -1.576
REMARK UNBOUND:                -1.665
REMARK SMILES COC(=O)C1=C(C)NC(C)=C(C(=O)OC(C)C)[C@@H]1c1cccc2nonc12
REMARK SMILES IDX 7 1 6 2 5 3 18 4 11 5 9 6 8 7 10 8 3 10 4 11 2 12 1 13 19 14
REMARK SMILES IDX 20 15 27 16 21 17 26 18 23 19 22 20 25 21 24 22 12 23 13 24
REMARK SMILES IDX 14 25 15 26 16 27 17 28
REMARK H PARENT 8 9
ROOT
ATOM      1  C   UNL     1     156.714 160.125 146.381  1.00  0.00     0.065 C 
ATOM      2  C   UNL     1     155.425 159.903 147.132  1.00  0.00     0.023 C 
ATOM      3  C   UNL     1     154.988 158.701 147.573  1.00  0.00     0.068 C 
ATOM      4  C   UNL     1     153.665 158.564 148.319  1.00  0.00     0.100 C 
ATOM      5  C   UNL     1     152.897 159.876 148.427  1.00  0.00     0.068 C 
ATOM      6  C   UNL     1     153.399 161.032 147.941  1.00  0.00     0.023 C 
ATOM      7  N   UNL     1     154.643 161.031 147.331  1.00  0.00    -0.362 N 
ATOM      8  C   UNL     1     152.680 162.356 147.963  1.00  0.00     0.065 C 
ATOM      9  H   UNL     1     155.019 161.924 147.022  1.00  0.00     0.166 HD
ENDROOT
BRANCH   3  10
ATOM     10  C   UNL     1     155.790 157.472 147.380  1.00  0.00     0.336 C 
ATOM     11  O   UNL     1     156.793 157.184 148.014  1.00  0.00    -0.246 OA
BRANCH  10  12
ATOM     12  O   UNL     1     155.234 156.723 146.392  1.00  0.00    -0.466 OA
ATOM     13  C   UNL     1     155.043 155.353 146.745  1.00  0.00     0.282 C 
ENDBRANCH  10  12
ENDBRANCH   3  10
BRANCH   4  14
ATOM     14  C   UNL     1     153.859 157.928 149.690  1.00  0.00    -0.004 A 
ATOM     15  C   UNL     1     153.059 156.829 150.109  1.00  0.00     0.007 A 
ATOM     16  C   UNL     1     154.797 158.338 150.671  1.00  0.00     0.139 A 
ATOM     17  C   UNL     1     153.180 156.193 151.373  1.00  0.00     0.003 A 
ATOM     18  N   UNL     1     155.694 159.332 150.632  1.00  0.00    -0.049 NA
ATOM     19  C   UNL     1     154.916 157.683 151.968  1.00  0.00     0.135 A 
ATOM     20  C   UNL     1     154.110 156.593 152.346  1.00  0.00     0.034 A 
ATOM     21  O   UNL     1     156.355 159.302 151.845  1.00  0.00    -0.243 OA
ATOM     22  N   UNL     1     155.878 158.296 152.667  1.00  0.00    -0.050 NA
ENDBRANCH   4  14
BRANCH   5  23
ATOM     23  C   UNL     1     151.569 159.764 149.066  1.00  0.00     0.337 C 
ATOM     24  O   UNL     1     150.643 159.136 148.575  1.00  0.00    -0.246 OA
BRANCH  23  25
ATOM     25  O   UNL     1     151.585 160.364 150.280  1.00  0.00    -0.460 OA
BRANCH  25  26
ATOM     26  C   UNL     1     150.895 159.675 151.337  1.00  0.00     0.170 C 
ATOM     27  C   UNL     1     151.836 159.634 152.535  1.00  0.00     0.052 C 
ATOM     28  C   UNL     1     149.612 160.425 151.680  1.00  0.00     0.052 C 
ENDBRANCH  25  26
ENDBRANCH  23  25
ENDBRANCH   5  23
TORSDOF 6
ENDMDL
MODEL 11
REMARK VINA RESULT:    -6.145      1.953      5.081
REMARK INTER + INTRA:          -9.964
REMARK INTER:                  -8.323
REMARK INTRA:                  -1.641
REMARK UNBOUND:                -1.665
REMARK SMILES COC(=O)C1=C(C)NC(C)=C(C(=O)OC(C)C)[C@@H]1c1cccc2nonc12
REMARK SMILES IDX 7 1 6 2 5 3 18 4 11 5 9 6 8 7 10 8 3 10 4 11 2 12 1 13 19 14
REMARK SMILES IDX 20 15 27 16 21 17 26 18 23 19 22 20 25 21 24 22 12 23 13 24
REMARK SMILES IDX 14 25 15 26 16 27 17 28
REMARK H PARENT 8 9
ROOT
ATOM      1  C   UNL     1     150.188 161.266 144.783  1.00  0.00     0.065 C 
ATOM      2  C   UNL     1     151.118 161.380 145.964  1.00  0.00     0.023 C 
ATOM      3  C   UNL     1     151.074 162.367 146.887  1.00  0.00     0.068 C 
ATOM      4  C   UNL     1     152.061 162.411 148.049  1.00  0.00     0.100 C 
ATOM      5  C   UNL     1     153.103 161.301 147.995  1.00  0.00     0.068 C 
ATOM      6  C   UNL     1     153.086 160.361 147.024  1.00  0.00     0.023 C 
ATOM      7  N   UNL     1     152.098 160.402 146.054  1.00  0.00    -0.362 N 
ATOM      8  C   UNL     1     154.109 159.264 146.873  1.00  0.00     0.065 C 
ATOM      9  H   UNL     1     152.079 159.652 145.367  1.00  0.00     0.166 HD
ENDROOT
BRANCH   3  10
ATOM     10  C   UNL     1     150.046 163.431 146.829  1.00  0.00     0.336 C 
ATOM     11  O   UNL     1     148.867 163.282 147.108  1.00  0.00    -0.246 OA
BRANCH  10  12
ATOM     12  O   UNL     1     150.622 164.591 146.416  1.00  0.00    -0.466 OA
ATOM     13  C   UNL     1     150.339 165.707 147.259  1.00  0.00     0.282 C 
ENDBRANCH  10  12
ENDBRANCH   3  10
BRANCH   4  14
ATOM     14  C   UNL     1     151.343 162.424 149.393  1.00  0.00    -0.004 A 
ATOM     15  C   UNL     1     150.541 161.326 149.807  1.00  0.00     0.007 A 
ATOM     16  C   UNL     1     151.370 163.481 150.339  1.00  0.00     0.139 A 
ATOM     17  C   UNL     1     149.838 161.273 151.040  1.00  0.00     0.003 A 
ATOM     18  N   UNL     1     152.001 164.661 150.283  1.00  0.00    -0.049 NA
ATOM     19  C   UNL     1     150.645 163.423 151.603  1.00  0.00     0.135 A 
ATOM     20  C   UNL     1     149.866 162.315 151.982  1.00  0.00     0.034 A 
ATOM     21  O   UNL     1     151.696 165.316 151.461  1.00  0.00    -0.243 OA
ATOM     22  N   UNL     1     150.863 164.562 152.270  1.00  0.00    -0.050 NA
ENDBRANCH   4  14
BRANCH   5  23
ATOM     23  C   UNL     1     154.130 161.364 149.056  1.00  0.00     0.337 C 
ATOM     24  O   UNL     1     154.215 160.538 149.952  1.00  0.00    -0.246 OA
BRANCH  23  25
ATOM     25  O   UNL     1     154.983 162.388 148.817  1.00  0.00    -0.460 OA
BRANCH  25  26
ATOM     26  C   UNL     1     156.351 162.028 148.560  1.00  0.00     0.170 C 
ATOM     27  C   UNL     1     156.506 161.906 147.049  1.00  0.00     0.052 C 
ATOM     28  C   UNL     1     157.275 163.105 149.116  1.00  0.00     0.052 C 
ENDBRANCH  25  26
ENDBRANCH  23  25
ENDBRANCH   5  23
TORSDOF 6
ENDMDL
MODEL 12
REMARK VINA RESULT:    -6.143      2.532      3.904
REMARK INTER + INTRA:          -9.962
REMARK INTER:                  -8.218
REMARK INTRA:                  -1.744
REMARK UNBOUND:                -1.665
REMARK SMILES COC(=O)C1=C(C)NC(C)=C(C(=O)OC(C)C)[C@@H]1c1cccc2nonc12
REMARK SMILES IDX 7 1 6 2 5 3 18 4 11 5 9 6 8 7 10 8 3 10 4 11 2 12 1 13 19 14
REMARK SMILES IDX 20 15 27 16 21 17 26 18 23 19 22 20 25 21 24 22 12 23 13 24
REMARK SMILES IDX 14 25 15 26 16 27 17 28
REMARK H PARENT 8 9
ROOT
ATOM      1  C   UNL     1     156.365 158.888 147.538  1.00  0.00     0.065 C 
ATOM      2  C   UNL     1     155.264 159.441 148.407  1.00  0.00     0.023 C 
ATOM      3  C   UNL     1     154.966 160.755 148.530  1.00  0.00     0.068 C 
ATOM      4  C   UNL     1     153.838 161.230 149.440  1.00  0.00     0.100 C 
ATOM      5  C   UNL     1     153.175 160.099 150.216  1.00  0.00     0.068 C 
ATOM      6  C   UNL     1     153.547 158.811 150.047  1.00  0.00     0.023 C 
ATOM      7  N   UNL     1     154.553 158.506 149.144  1.00  0.00    -0.362 N 
ATOM      8  C   UNL     1     152.976 157.645 150.813  1.00  0.00     0.065 C 
ATOM      9  H   UNL     1     154.775 157.524 148.999  1.00  0.00     0.166 HD
ENDROOT
BRANCH   3  10
ATOM     10  C   UNL     1     155.700 161.786 147.763  1.00  0.00     0.336 C 
ATOM     11  O   UNL     1     155.538 162.024 146.577  1.00  0.00    -0.246 OA
BRANCH  10  12
ATOM     12  O   UNL     1     156.577 162.419 148.586  1.00  0.00    -0.466 OA
ATOM     13  C   UNL     1     157.791 162.808 147.944  1.00  0.00     0.282 C 
ENDBRANCH  10  12
ENDBRANCH   3  10
BRANCH   4  14
ATOM     14  C   UNL     1     152.806 162.046 148.672  1.00  0.00    -0.004 A 
ATOM     15  C   UNL     1     152.223 161.552 147.472  1.00  0.00     0.007 A 
ATOM     16  C   UNL     1     152.335 163.336 149.027  1.00  0.00     0.139 A 
ATOM     17  C   UNL     1     151.263 162.260 146.702  1.00  0.00     0.003 A 
ATOM     18  N   UNL     1     152.666 164.109 150.070  1.00  0.00    -0.049 NA
ATOM     19  C   UNL     1     151.350 164.060 148.232  1.00  0.00     0.135 A 
ATOM     20  C   UNL     1     150.791 163.535 147.053  1.00  0.00     0.034 A 
ATOM     21  O   UNL     1     151.919 165.264 149.945  1.00  0.00    -0.243 OA
ATOM     22  N   UNL     1     151.116 165.240 148.818  1.00  0.00    -0.050 NA
ENDBRANCH   4  14
BRANCH   5  23
ATOM     23  C   UNL     1     152.136 160.532 151.174  1.00  0.00     0.337 C 
ATOM     24  O   UNL     1     152.386 161.174 152.184  1.00  0.00    -0.246 OA
BRANCH  23  25
ATOM     25  O   UNL     1     150.908 160.200 150.710  1.00  0.00    -0.460 OA
BRANCH  25  26
ATOM     26  C   UNL     1     149.862 161.161 150.940  1.00  0.00     0.170 C 
ATOM     27  C   UNL     1     149.118 161.336 149.622  1.00  0.00     0.052 C 
ATOM     28  C   UNL     1     148.927 160.645 152.027  1.00  0.00     0.052 C 
ENDBRANCH  25  26
ENDBRANCH  23  25
ENDBRANCH   5  23
TORSDOF 6
ENDMDL
MODEL 13
REMARK VINA RESULT:    -6.139      2.519      5.116
REMARK INTER + INTRA:          -9.957
REMARK INTER:                  -8.219
REMARK INTRA:                  -1.738
REMARK UNBOUND:                -1.665
REMARK SMILES COC(=O)C1=C(C)NC(C)=C(C(=O)OC(C)C)[C@@H]1c1cccc2nonc12
REMARK SMILES IDX 7 1 6 2 5 3 18 4 11 5 9 6 8 7 10 8 3 10 4 11 2 12 1 13 19 14
REMARK SMILES IDX 20 15 27 16 21 17 26 18 23 19 22 20 25 21 24 22 12 23 13 24
REMARK SMILES IDX 14 25 15 26 16 27 17 28
REMARK H PARENT 8 9
ROOT
ATOM      1  C   UNL     1     151.283 164.506 153.191  1.00  0.00     0.065 C 
ATOM      2  C   UNL     1     150.883 163.679 151.996  1.00  0.00     0.023 C 
ATOM      3  C   UNL     1     151.175 163.989 150.713  1.00  0.00     0.068 C 
ATOM      4  C   UNL     1     150.723 163.098 149.559  1.00  0.00     0.100 C 
ATOM      5  C   UNL     1     149.873 161.916 150.010  1.00  0.00     0.068 C 
ATOM      6  C   UNL     1     149.613 161.688 151.317  1.00  0.00     0.023 C 
ATOM      7  N   UNL     1     150.131 162.546 152.274  1.00  0.00    -0.362 N 
ATOM      8  C   UNL     1     148.742 160.575 151.837  1.00  0.00     0.065 C 
ATOM      9  H   UNL     1     149.963 162.321 153.251  1.00  0.00     0.166 HD
ENDROOT
BRANCH   3  10
ATOM     10  C   UNL     1     151.972 165.188 150.372  1.00  0.00     0.336 C 
ATOM     11  O   UNL     1     153.178 165.295 150.529  1.00  0.00    -0.246 OA
BRANCH  10  12
ATOM     12  O   UNL     1     151.152 166.143 149.861  1.00  0.00    -0.466 OA
ATOM     13  C   UNL     1     151.530 166.591 148.559  1.00  0.00     0.282 C 
ENDBRANCH  10  12
ENDBRANCH   3  10
BRANCH   4  14
ATOM     14  C   UNL     1     151.903 162.634 148.715  1.00  0.00    -0.004 A 
ATOM     15  C   UNL     1     152.044 163.046 147.361  1.00  0.00     0.007 A 
ATOM     16  C   UNL     1     152.942 161.770 149.143  1.00  0.00     0.139 A 
ATOM     17  C   UNL     1     153.113 162.648 146.515  1.00  0.00     0.003 A 
ATOM     18  N   UNL     1     153.128 161.182 150.333  1.00  0.00    -0.049 NA
ATOM     19  C   UNL     1     154.037 161.362 148.270  1.00  0.00     0.135 A 
ATOM     20  C   UNL     1     154.146 161.796 146.936  1.00  0.00     0.034 A 
ATOM     21  O   UNL     1     154.290 160.444 150.219  1.00  0.00    -0.243 OA
ATOM     22  N   UNL     1     154.847 160.548 148.956  1.00  0.00    -0.050 NA
ENDBRANCH   4  14
BRANCH   5  23
ATOM     23  C   UNL     1     149.344 161.081 148.912  1.00  0.00     0.337 C 
ATOM     24  O   UNL     1     148.456 161.452 148.160  1.00  0.00    -0.246 OA
BRANCH  23  25
ATOM     25  O   UNL     1     150.049 159.928 148.823  1.00  0.00    -0.460 OA
BRANCH  25  26
ATOM     26  C   UNL     1     149.953 159.220 147.575  1.00  0.00     0.170 C 
ATOM     27  C   UNL     1     151.366 159.101 147.017  1.00  0.00     0.052 C 
ATOM     28  C   UNL     1     149.346 157.843 147.816  1.00  0.00     0.052 C 
ENDBRANCH  25  26
ENDBRANCH  23  25
ENDBRANCH   5  23
TORSDOF 6
ENDMDL
MODEL 14
REMARK VINA RESULT:    -6.124      4.230      7.712
REMARK INTER + INTRA:          -9.936
REMARK INTER:                  -8.465
REMARK INTRA:                  -1.472
REMARK UNBOUND:                -1.665
REMARK SMILES COC(=O)C1=C(C)NC(C)=C(C(=O)OC(C)C)[C@@H]1c1cccc2nonc12
REMARK SMILES IDX 7 1 6 2 5 3 18 4 11 5 9 6 8 7 10 8 3 10 4 11 2 12 1 13 19 14
REMARK SMILES IDX 20 15 27 16 21 17 26 18 23 19 22 20 25 21 24 22 12 23 13 24
REMARK SMILES IDX 14 25 15 26 16 27 17 28
REMARK H PARENT 8 9
ROOT
ATOM      1  C   UNL     1     152.314 155.341 150.704  1.00  0.00     0.065 C 
ATOM      2  C   UNL     1     151.194 156.297 150.375  1.00  0.00     0.023 C 
ATOM      3  C   UNL     1     150.276 156.101 149.401  1.00  0.00     0.068 C 
ATOM      4  C   UNL     1     149.179 157.125 149.129  1.00  0.00     0.100 C 
ATOM      5  C   UNL     1     149.293 158.373 149.996  1.00  0.00     0.068 C 
ATOM      6  C   UNL     1     150.255 158.496 150.937  1.00  0.00     0.023 C 
ATOM      7  N   UNL     1     151.161 157.464 151.123  1.00  0.00    -0.362 N 
ATOM      8  C   UNL     1     150.464 159.716 151.797  1.00  0.00     0.065 C 
ATOM      9  H   UNL     1     151.841 157.562 151.873  1.00  0.00     0.166 HD
ENDROOT
BRANCH   3  10
ATOM     10  C   UNL     1     150.276 154.870 148.579  1.00  0.00     0.336 C 
ATOM     11  O   UNL     1     149.997 153.755 148.989  1.00  0.00    -0.246 OA
BRANCH  10  12
ATOM     12  O   UNL     1     150.635 155.180 147.305  1.00  0.00    -0.466 OA
ATOM     13  C   UNL     1     149.741 154.672 146.315  1.00  0.00     0.282 C 
ENDBRANCH  10  12
ENDBRANCH   3  10
BRANCH   4  14
ATOM     14  C   UNL     1     147.793 156.503 149.241  1.00  0.00    -0.004 A 
ATOM     15  C   UNL     1     147.447 155.675 150.344  1.00  0.00     0.007 A 
ATOM     16  C   UNL     1     146.738 156.650 148.305  1.00  0.00     0.139 A 
ATOM     17  C   UNL     1     146.179 155.057 150.510  1.00  0.00     0.003 A 
ATOM     18  N   UNL     1     146.706 157.337 147.155  1.00  0.00    -0.049 NA
ATOM     19  C   UNL     1     145.438 156.013 148.479  1.00  0.00     0.135 A 
ATOM     20  C   UNL     1     145.130 155.204 149.588  1.00  0.00     0.034 A 
ATOM     21  O   UNL     1     145.442 157.149 146.630  1.00  0.00    -0.243 OA
ATOM     22  N   UNL     1     144.664 156.335 147.436  1.00  0.00    -0.050 NA
ENDBRANCH   4  14
BRANCH   5  23
ATOM     23  C   UNL     1     148.299 159.425 149.699  1.00  0.00     0.337 C 
ATOM     24  O   UNL     1     147.424 159.758 150.483  1.00  0.00    -0.246 OA
BRANCH  23  25
ATOM     25  O   UNL     1     148.575 160.001 148.504  1.00  0.00    -0.460 OA
BRANCH  25  26
ATOM     26  C   UNL     1     148.713 161.433 148.507  1.00  0.00     0.170 C 
ATOM     27  C   UNL     1     150.196 161.739 148.679  1.00  0.00     0.052 C 
ATOM     28  C   UNL     1     148.190 161.997 147.191  1.00  0.00     0.052 C 
ENDBRANCH  25  26
ENDBRANCH  23  25
ENDBRANCH   5  23
TORSDOF 6
ENDMDL
MODEL 15
REMARK VINA RESULT:    -6.116      3.817      7.257
REMARK INTER + INTRA:          -9.926
REMARK INTER:                  -8.489
REMARK INTRA:                  -1.437
REMARK UNBOUND:                -1.665
REMARK SMILES COC(=O)C1=C(C)NC(C)=C(C(=O)OC(C)C)[C@@H]1c1cccc2nonc12
REMARK SMILES IDX 7 1 6 2 5 3 18 4 11 5 9 6 8 7 10 8 3 10 4 11 2 12 1 13 19 14
REMARK SMILES IDX 20 15 27 16 21 17 26 18 23 19 22 20 25 21 24 22 12 23 13 24
REMARK SMILES IDX 14 25 15 26 16 27 17 28
REMARK H PARENT 8 9
ROOT
ATOM      1  C   UNL     1     149.486 159.794 151.477  1.00  0.00     0.065 C 
ATOM      2  C   UNL     1     149.103 159.530 150.043  1.00  0.00     0.023 C 
ATOM      3  C   UNL     1     149.124 158.313 149.453  1.00  0.00     0.068 C 
ATOM      4  C   UNL     1     148.728 158.134 147.990  1.00  0.00     0.100 C 
ATOM      5  C   UNL     1     148.400 159.448 147.292  1.00  0.00     0.068 C 
ATOM      6  C   UNL     1     148.421 160.627 147.954  1.00  0.00     0.023 C 
ATOM      7  N   UNL     1     148.745 160.645 149.301  1.00  0.00    -0.362 N 
ATOM      8  C   UNL     1     148.160 161.970 147.323  1.00  0.00     0.065 C 
ATOM      9  H   UNL     1     148.702 161.538 149.785  1.00  0.00     0.166 HD
ENDROOT
BRANCH   3  10
ATOM     10  C   UNL     1     149.502 157.097 150.207  1.00  0.00     0.336 C 
ATOM     11  O   UNL     1     148.726 156.396 150.838  1.00  0.00    -0.246 OA
BRANCH  10  12
ATOM     12  O   UNL     1     150.839 156.889 150.087  1.00  0.00    -0.466 OA
ATOM     13  C   UNL     1     151.358 155.927 151.004  1.00  0.00     0.282 C 
ENDBRANCH  10  12
ENDBRANCH   3  10
BRANCH   4  14
ATOM     14  C   UNL     1     147.591 157.133 147.838  1.00  0.00    -0.004 A 
ATOM     15  C   UNL     1     147.755 155.945 147.073  1.00  0.00     0.007 A 
ATOM     16  C   UNL     1     146.292 157.260 148.393  1.00  0.00     0.139 A 
ATOM     17  C   UNL     1     146.738 154.973 146.882  1.00  0.00     0.003 A 
ATOM     18  N   UNL     1     145.778 158.240 149.148  1.00  0.00    -0.049 NA
ATOM     19  C   UNL     1     145.249 156.260 148.193  1.00  0.00     0.135 A 
ATOM     20  C   UNL     1     145.452 155.092 147.434  1.00  0.00     0.034 A 
ATOM     21  O   UNL     1     144.474 157.872 149.420  1.00  0.00    -0.243 OA
ATOM     22  N   UNL     1     144.146 156.663 148.832  1.00  0.00    -0.050 NA
ENDBRANCH   4  14
BRANCH   5  23
ATOM     23  C   UNL     1     148.098 159.324 145.851  1.00  0.00     0.337 C 
ATOM     24  O   UNL     1     146.999 159.570 145.376  1.00  0.00    -0.246 OA
BRANCH  23  25
ATOM     25  O   UNL     1     149.221 159.004 145.166  1.00  0.00    -0.460 OA
BRANCH  25  26
ATOM     26  C   UNL     1     150.123 160.088 144.884  1.00  0.00     0.170 C 
ATOM     27  C   UNL     1     151.538 159.535 144.997  1.00  0.00     0.052 C 
ATOM     28  C   UNL     1     149.858 160.619 143.480  1.00  0.00     0.052 C 
ENDBRANCH  25  26
ENDBRANCH  23  25
ENDBRANCH   5  23
TORSDOF 6
ENDMDL
MODEL 16
REMARK VINA RESULT:    -6.082      4.406      6.667
REMARK INTER + INTRA:          -9.880
REMARK INTER:                  -8.394
REMARK INTRA:                  -1.486
REMARK UNBOUND:                -1.665
REMARK SMILES COC(=O)C1=C(C)NC(C)=C(C(=O)OC(C)C)[C@@H]1c1cccc2nonc12
REMARK SMILES IDX 7 1 6 2 5 3 18 4 11 5 9 6 8 7 10 8 3 10 4 11 2 12 1 13 19 14
REMARK SMILES IDX 20 15 27 16 21 17 26 18 23 19 22 20 25 21 24 22 12 23 13 24
REMARK SMILES IDX 14 25 15 26 16 27 17 28
REMARK H PARENT 8 9
ROOT
ATOM      1  C   UNL     1     152.208 154.941 151.803  1.00  0.00     0.065 C 
ATOM      2  C   UNL     1     150.934 155.532 151.256  1.00  0.00     0.023 C 
ATOM      3  C   UNL     1     150.862 156.676 150.538  1.00  0.00     0.068 C 
ATOM      4  C   UNL     1     149.527 157.209 150.028  1.00  0.00     0.100 C 
ATOM      5  C   UNL     1     148.335 156.373 150.476  1.00  0.00     0.068 C 
ATOM      6  C   UNL     1     148.494 155.249 151.209  1.00  0.00     0.023 C 
ATOM      7  N   UNL     1     149.771 154.841 151.562  1.00  0.00    -0.362 N 
ATOM      8  C   UNL     1     147.366 154.398 151.732  1.00  0.00     0.065 C 
ATOM      9  H   UNL     1     149.864 153.964 152.069  1.00  0.00     0.166 HD
ENDROOT
BRANCH   3  10
ATOM     10  C   UNL     1     152.078 157.445 150.190  1.00  0.00     0.336 C 
ATOM     11  O   UNL     1     152.848 157.165 149.284  1.00  0.00    -0.246 OA
BRANCH  10  12
ATOM     12  O   UNL     1     152.199 158.502 151.034  1.00  0.00    -0.466 OA
ATOM     13  C   UNL     1     153.440 158.538 151.739  1.00  0.00     0.282 C 
ENDBRANCH  10  12
ENDBRANCH   3  10
BRANCH   4  14
ATOM     14  C   UNL     1     149.536 157.384 148.515  1.00  0.00    -0.004 A 
ATOM     15  C   UNL     1     149.676 156.266 147.647  1.00  0.00     0.007 A 
ATOM     16  C   UNL     1     149.430 158.616 147.820  1.00  0.00     0.139 A 
ATOM     17  C   UNL     1     149.701 156.355 146.230  1.00  0.00     0.003 A 
ATOM     18  N   UNL     1     149.301 159.859 148.301  1.00  0.00    -0.049 NA
ATOM     19  C   UNL     1     149.458 158.703 146.364  1.00  0.00     0.135 A 
ATOM     20  C   UNL     1     149.591 157.572 145.538  1.00  0.00     0.034 A 
ATOM     21  O   UNL     1     149.242 160.693 147.201  1.00  0.00    -0.243 OA
ATOM     22  N   UNL     1     149.342 159.989 146.014  1.00  0.00    -0.050 NA
ENDBRANCH   4  14
BRANCH   5  23
ATOM     23  C   UNL     1     147.018 156.908 150.074  1.00  0.00     0.337 C 
ATOM     24  O   UNL     1     146.597 157.994 150.445  1.00  0.00    -0.246 OA
BRANCH  23  25
ATOM     25  O   UNL     1     146.428 156.074 149.184  1.00  0.00    -0.460 OA
BRANCH  25  26
ATOM     26  C   UNL     1     145.199 156.538 148.598  1.00  0.00     0.170 C 
ATOM     27  C   UNL     1     145.174 156.042 147.158  1.00  0.00     0.052 C 
ATOM     28  C   UNL     1     144.019 155.980 149.385  1.00  0.00     0.052 C 
ENDBRANCH  25  26
ENDBRANCH  23  25
ENDBRANCH   5  23
TORSDOF 6
ENDMDL
MODEL 17
REMARK VINA RESULT:    -6.016      2.191      5.413
REMARK INTER + INTRA:          -9.791
REMARK INTER:                  -8.246
REMARK INTRA:                  -1.545
REMARK UNBOUND:                -1.665
REMARK SMILES COC(=O)C1=C(C)NC(C)=C(C(=O)OC(C)C)[C@@H]1c1cccc2nonc12
REMARK SMILES IDX 7 1 6 2 5 3 18 4 11 5 9 6 8 7 10 8 3 10 4 11 2 12 1 13 19 14
REMARK SMILES IDX 20 15 27 16 21 17 26 18 23 19 22 20 25 21 24 22 12 23 13 24
REMARK SMILES IDX 14 25 15 26 16 27 17 28
REMARK H PARENT 8 9
ROOT
ATOM      1  C   UNL     1     150.230 158.284 150.582  1.00  0.00     0.065 C 
ATOM      2  C   UNL     1     151.228 159.276 150.039  1.00  0.00     0.023 C 
ATOM      3  C   UNL     1     150.905 160.398 149.357  1.00  0.00     0.068 C 
ATOM      4  C   UNL     1     151.980 161.345 148.833  1.00  0.00     0.100 C 
ATOM      5  C   UNL     1     153.397 160.848 149.094  1.00  0.00     0.068 C 
ATOM      6  C   UNL     1     153.632 159.702 149.770  1.00  0.00     0.023 C 
ATOM      7  N   UNL     1     152.563 158.958 150.242  1.00  0.00    -0.362 N 
ATOM      8  C   UNL     1     154.999 159.120 150.022  1.00  0.00     0.065 C 
ATOM      9  H   UNL     1     152.771 158.129 150.793  1.00  0.00     0.166 HD
ENDROOT
BRANCH   3  10
ATOM     10  C   UNL     1     149.494 160.774 149.115  1.00  0.00     0.336 C 
ATOM     11  O   UNL     1     148.744 161.252 149.952  1.00  0.00    -0.246 OA
BRANCH  10  12
ATOM     12  O   UNL     1     149.170 160.502 147.824  1.00  0.00    -0.466 OA
ATOM     13  C   UNL     1     148.515 161.579 147.155  1.00  0.00     0.282 C 
ENDBRANCH  10  12
ENDBRANCH   3  10
BRANCH   4  14
ATOM     14  C   UNL     1     151.788 162.759 149.367  1.00  0.00    -0.004 A 
ATOM     15  C   UNL     1     151.476 163.838 148.494  1.00  0.00     0.007 A 
ATOM     16  C   UNL     1     151.906 163.158 150.723  1.00  0.00     0.139 A 
ATOM     17  C   UNL     1     151.291 165.179 148.921  1.00  0.00     0.003 A 
ATOM     18  N   UNL     1     152.197 162.426 151.806  1.00  0.00    -0.049 NA
ATOM     19  C   UNL     1     151.716 164.538 151.156  1.00  0.00     0.135 A 
ATOM     20  C   UNL     1     151.402 165.578 150.263  1.00  0.00     0.034 A 
ATOM     21  O   UNL     1     152.186 163.301 152.876  1.00  0.00    -0.243 OA
ATOM     22  N   UNL     1     151.896 164.595 152.481  1.00  0.00    -0.050 NA
ENDBRANCH   4  14
BRANCH   5  23
ATOM     23  C   UNL     1     154.464 161.696 148.523  1.00  0.00     0.337 C 
ATOM     24  O   UNL     1     155.324 162.234 149.203  1.00  0.00    -0.246 OA
BRANCH  23  25
ATOM     25  O   UNL     1     154.388 161.692 147.170  1.00  0.00    -0.460 OA
BRANCH  25  26
ATOM     26  C   UNL     1     154.779 160.472 146.517  1.00  0.00     0.170 C 
ATOM     27  C   UNL     1     153.993 160.390 145.214  1.00  0.00     0.052 C 
ATOM     28  C   UNL     1     156.279 160.498 146.246  1.00  0.00     0.052 C 
ENDBRANCH  25  26
ENDBRANCH  23  25
ENDBRANCH   5  23
TORSDOF 6
ENDMDL
MODEL 18
REMARK VINA RESULT:    -5.999      2.354      5.058
REMARK INTER + INTRA:          -9.768
REMARK INTER:                  -8.203
REMARK INTRA:                  -1.565
REMARK UNBOUND:                -1.665
REMARK SMILES COC(=O)C1=C(C)NC(C)=C(C(=O)OC(C)C)[C@@H]1c1cccc2nonc12
REMARK SMILES IDX 7 1 6 2 5 3 18 4 11 5 9 6 8 7 10 8 3 10 4 11 2 12 1 13 19 14
REMARK SMILES IDX 20 15 27 16 21 17 26 18 23 19 22 20 25 21 24 22 12 23 13 24
REMARK SMILES IDX 14 25 15 26 16 27 17 28
REMARK H PARENT 8 9
ROOT
ATOM      1  C   UNL     1     150.613 165.772 147.478  1.00  0.00     0.065 C 
ATOM      2  C   UNL     1     150.860 164.287 147.555  1.00  0.00     0.023 C 
ATOM      3  C   UNL     1     151.447 163.657 148.599  1.00  0.00     0.068 C 
ATOM      4  C   UNL     1     151.667 162.148 148.592  1.00  0.00     0.100 C 
ATOM      5  C   UNL     1     151.236 161.484 147.290  1.00  0.00     0.068 C 
ATOM      6  C   UNL     1     150.673 162.192 146.286  1.00  0.00     0.023 C 
ATOM      7  N   UNL     1     150.477 163.555 146.441  1.00  0.00    -0.362 N 
ATOM      8  C   UNL     1     150.269 161.619 144.952  1.00  0.00     0.065 C 
ATOM      9  H   UNL     1     150.004 164.053 145.691  1.00  0.00     0.166 HD
ENDROOT
BRANCH   3  10
ATOM     10  C   UNL     1     151.872 164.400 149.807  1.00  0.00     0.336 C 
ATOM     11  O   UNL     1     153.031 164.581 150.145  1.00  0.00    -0.246 OA
BRANCH  10  12
ATOM     12  O   UNL     1     150.774 164.842 150.473  1.00  0.00    -0.466 OA
ATOM     13  C   UNL     1     150.796 164.558 151.872  1.00  0.00     0.282 C 
ENDBRANCH  10  12
ENDBRANCH   3  10
BRANCH   4  14
ATOM     14  C   UNL     1     151.006 161.481 149.792  1.00  0.00    -0.004 A 
ATOM     15  C   UNL     1     149.599 161.544 149.985  1.00  0.00     0.007 A 
ATOM     16  C   UNL     1     151.676 160.767 150.818  1.00  0.00     0.139 A 
ATOM     17  C   UNL     1     148.918 160.954 151.082  1.00  0.00     0.003 A 
ATOM     18  N   UNL     1     152.983 160.519 150.973  1.00  0.00    -0.049 NA
ATOM     19  C   UNL     1     150.972 160.164 151.944  1.00  0.00     0.135 A 
ATOM     20  C   UNL     1     149.576 160.242 152.098  1.00  0.00     0.034 A 
ATOM     21  O   UNL     1     153.100 159.785 152.138  1.00  0.00    -0.243 OA
ATOM     22  N   UNL     1     151.871 159.570 152.738  1.00  0.00    -0.050 NA
ENDBRANCH   4  14
BRANCH   5  23
ATOM     23  C   UNL     1     151.516 160.035 147.213  1.00  0.00     0.337 C 
ATOM     24  O   UNL     1     150.639 159.184 147.228  1.00  0.00    -0.246 OA
BRANCH  23  25
ATOM     25  O   UNL     1     152.842 159.826 147.028  1.00  0.00    -0.460 OA
BRANCH  25  26
ATOM     26  C   UNL     1     153.202 158.957 145.941  1.00  0.00     0.170 C 
ATOM     27  C   UNL     1     153.500 159.844 144.738  1.00  0.00     0.052 C 
ATOM     28  C   UNL     1     154.427 158.137 146.328  1.00  0.00     0.052 C 
ENDBRANCH  25  26
ENDBRANCH  23  25
ENDBRANCH   5  23
TORSDOF 6
ENDMDL
MODEL 19
REMARK VINA RESULT:    -5.976      3.930      6.518
REMARK INTER + INTRA:          -9.737
REMARK INTER:                  -8.056
REMARK INTRA:                  -1.680
REMARK UNBOUND:                -1.665
REMARK SMILES COC(=O)C1=C(C)NC(C)=C(C(=O)OC(C)C)[C@@H]1c1cccc2nonc12
REMARK SMILES IDX 7 1 6 2 5 3 18 4 11 5 9 6 8 7 10 8 3 10 4 11 2 12 1 13 19 14
REMARK SMILES IDX 20 15 27 16 21 17 26 18 23 19 22 20 25 21 24 22 12 23 13 24
REMARK SMILES IDX 14 25 15 26 16 27 17 28
REMARK H PARENT 8 9
ROOT
ATOM      1  C   UNL     1     151.195 162.703 147.130  1.00  0.00     0.065 C 
ATOM      2  C   UNL     1     152.255 161.632 147.197  1.00  0.00     0.023 C 
ATOM      3  C   UNL     1     152.970 161.325 148.303  1.00  0.00     0.068 C 
ATOM      4  C   UNL     1     154.032 160.230 148.280  1.00  0.00     0.100 C 
ATOM      5  C   UNL     1     154.231 159.613 146.901  1.00  0.00     0.068 C 
ATOM      6  C   UNL     1     153.483 159.993 145.841  1.00  0.00     0.023 C 
ATOM      7  N   UNL     1     152.509 160.963 146.008  1.00  0.00    -0.362 N 
ATOM      8  C   UNL     1     153.654 159.468 144.439  1.00  0.00     0.065 C 
ATOM      9  H   UNL     1     151.926 161.191 145.206  1.00  0.00     0.166 HD
ENDROOT
BRANCH   3  10
ATOM     10  C   UNL     1     152.732 162.014 149.590  1.00  0.00     0.336 C 
ATOM     11  O   UNL     1     153.477 162.845 150.087  1.00  0.00    -0.246 OA
BRANCH  10  12
ATOM     12  O   UNL     1     151.563 161.576 150.126  1.00  0.00    -0.466 OA
ATOM     13  C   UNL     1     151.546 161.581 151.554  1.00  0.00     0.282 C 
ENDBRANCH  10  12
ENDBRANCH   3  10
BRANCH   4  14
ATOM     14  C   UNL     1     153.752 159.157 149.325  1.00  0.00    -0.004 A 
ATOM     15  C   UNL     1     152.582 158.352 149.255  1.00  0.00     0.007 A 
ATOM     16  C   UNL     1     154.567 158.856 150.446  1.00  0.00     0.139 A 
ATOM     17  C   UNL     1     152.254 157.341 150.197  1.00  0.00     0.003 A 
ATOM     18  N   UNL     1     155.723 159.411 150.835  1.00  0.00    -0.049 NA
ATOM     19  C   UNL     1     154.225 157.817 151.411  1.00  0.00     0.135 A 
ATOM     20  C   UNL     1     153.061 157.035 151.305  1.00  0.00     0.034 A 
ATOM     21  O   UNL     1     156.097 158.749 151.989  1.00  0.00    -0.243 OA
ATOM     22  N   UNL     1     155.180 157.776 152.347  1.00  0.00    -0.050 NA
ENDBRANCH   4  14
BRANCH   5  23
ATOM     23  C   UNL     1     155.314 158.611 146.823  1.00  0.00     0.337 C 
ATOM     24  O   UNL     1     156.486 158.876 147.042  1.00  0.00    -0.246 OA
BRANCH  23  25
ATOM     25  O   UNL     1     154.795 157.384 146.577  1.00  0.00    -0.460 OA
BRANCH  25  26
ATOM     26  C   UNL     1     155.594 156.262 146.992  1.00  0.00     0.170 C 
ATOM     27  C   UNL     1     154.988 155.735 148.286  1.00  0.00     0.052 C 
ATOM     28  C   UNL     1     155.572 155.193 145.906  1.00  0.00     0.052 C 
ENDBRANCH  25  26
ENDBRANCH  23  25
ENDBRANCH   5  23
TORSDOF 6
ENDMDL
MODEL 20
REMARK VINA RESULT:    -5.946      3.081      5.494
REMARK INTER + INTRA:          -9.696
REMARK INTER:                  -8.263
REMARK INTRA:                  -1.432
REMARK UNBOUND:                -1.665
REMARK SMILES COC(=O)C1=C(C)NC(C)=C(C(=O)OC(C)C)[C@@H]1c1cccc2nonc12
REMARK SMILES IDX 7 1 6 2 5 3 18 4 11 5 9 6 8 7 10 8 3 10 4 11 2 12 1 13 19 14
REMARK SMILES IDX 20 15 27 16 21 17 26 18 23 19 22 20 25 21 24 22 12 23 13 24
REMARK SMILES IDX 14 25 15 26 16 27 17 28
REMARK H PARENT 8 9
ROOT
ATOM      1  C   UNL     1     151.477 157.498 150.813  1.00  0.00     0.065 C 
ATOM      2  C   UNL     1     151.738 158.910 150.352  1.00  0.00     0.023 C 
ATOM      3  C   UNL     1     152.965 159.466 150.231  1.00  0.00     0.068 C 
ATOM      4  C   UNL     1     153.139 160.908 149.764  1.00  0.00     0.100 C 
ATOM      5  C   UNL     1     151.816 161.631 149.540  1.00  0.00     0.068 C 
ATOM      6  C   UNL     1     150.630 161.004 149.701  1.00  0.00     0.023 C 
ATOM      7  N   UNL     1     150.611 159.670 150.076  1.00  0.00    -0.362 N 
ATOM      8  C   UNL     1     149.283 161.662 149.548  1.00  0.00     0.065 C 
ATOM      9  H   UNL     1     149.706 159.210 150.139  1.00  0.00     0.166 HD
ENDROOT
BRANCH   3  10
ATOM     10  C   UNL     1     154.193 158.692 150.516  1.00  0.00     0.336 C 
ATOM     11  O   UNL     1     154.721 157.908 149.744  1.00  0.00    -0.246 OA
BRANCH  10  12
ATOM     12  O   UNL     1     154.634 158.991 151.766  1.00  0.00    -0.466 OA
ATOM     13  C   UNL     1     155.667 158.125 152.236  1.00  0.00     0.282 C 
ENDBRANCH  10  12
ENDBRANCH   3  10
BRANCH   4  14
ATOM     14  C   UNL     1     154.026 160.993 148.529  1.00  0.00    -0.004 A 
ATOM     15  C   UNL     1     153.653 160.358 147.312  1.00  0.00     0.007 A 
ATOM     16  C   UNL     1     155.273 161.662 148.446  1.00  0.00     0.139 A 
ATOM     17  C   UNL     1     154.433 160.389 146.126  1.00  0.00     0.003 A 
ATOM     18  N   UNL     1     155.939 162.348 149.385  1.00  0.00    -0.049 NA
ATOM     19  C   UNL     1     156.072 161.689 147.226  1.00  0.00     0.135 A 
ATOM     20  C   UNL     1     155.667 161.055 146.038  1.00  0.00     0.034 A 
ATOM     21  O   UNL     1     157.100 162.795 148.785  1.00  0.00    -0.243 OA
ATOM     22  N   UNL     1     157.187 162.389 147.464  1.00  0.00    -0.050 NA
ENDBRANCH   4  14
BRANCH   5  23
ATOM     23  C   UNL     1     151.946 163.056 149.172  1.00  0.00     0.337 C 
ATOM     24  O   UNL     1     152.418 163.898 149.920  1.00  0.00    -0.246 OA
BRANCH  23  25
ATOM     25  O   UNL     1     151.563 163.241 147.886  1.00  0.00    -0.460 OA
BRANCH  25  26
ATOM     26  C   UNL     1     150.788 164.423 147.618  1.00  0.00     0.170 C 
ATOM     27  C   UNL     1     151.675 165.370 146.820  1.00  0.00     0.052 C 
ATOM     28  C   UNL     1     149.543 164.046 146.823  1.00  0.00     0.052 C 
ENDBRANCH  25  26
ENDBRANCH  23  25
ENDBRANCH   5  23
TORSDOF 6
ENDMDL
