REMARK SMILES CN1CCN(CCOc2cc3c(c(OC4CCOCC4)c2)C(Nc2c(Cl)ccc4c2OCO4)N=CN3)CC1
REMARK SMILES IDX 8 1 7 2 6 3 5 4 2 5 3 6 38 7 4 8 37 9 1 10 9 11 21 12 10 13
REMARK SMILES IDX 13 14 11 15 12 16 36 17 22 18 35 19 34 20 14 22 15 23 16 24
REMARK SMILES IDX 20 25 17 26 19 27 18 28 23 29 24 31 30 32 25 33 31 34 29 35
REMARK SMILES IDX 27 36 32 37 33 38 28 39 26 40
REMARK H PARENT 36 21 23 30
ROOT
ATOM      1  O   UNL     1     -10.319  16.796  -6.608  1.00  0.00    -0.492 OA
ENDROOT
BRANCH   1   2
ATOM      2  C   UNL     1     -10.170  18.191  -6.493  1.00  0.00     0.245 C 
BRANCH   2   3
ATOM      3  C   UNL     1      -9.140  18.585  -5.421  1.00  0.00     0.126 C 
BRANCH   3   4
ATOM      4  N   UNL     1      -8.604  17.498  -4.609  1.00  0.00    -0.297 NA
ATOM      5  N   UNL     1      -7.225  16.574  -2.203  1.00  0.00    -0.304 NA
ATOM      6  C   UNL     1      -6.548  16.658  -3.485  1.00  0.00     0.099 C 
ATOM      7  C   UNL     1      -8.641  16.335  -2.416  1.00  0.00     0.099 C 
ATOM      8  C   UNL     1      -7.178  17.724  -4.393  1.00  0.00     0.100 C 
ATOM      9  C   UNL     1      -9.255  17.430  -3.309  1.00  0.00     0.100 C 
ATOM     10  C   UNL     1      -6.642  15.516  -1.396  1.00  0.00     0.105 C 
ENDBRANCH   3   4
ENDBRANCH   2   3
ENDBRANCH   1   2
BRANCH   1  11
ATOM     11  C   UNL     1     -10.959  16.354  -7.740  1.00  0.00     0.125 A 
ATOM     12  C   UNL     1     -10.521  15.285  -8.431  1.00  0.00     0.093 A 
ATOM     13  C   UNL     1     -12.060  16.941  -8.223  1.00  0.00     0.073 A 
ATOM     14  C   UNL     1     -11.106  14.784  -9.543  1.00  0.00     0.132 A 
ATOM     15  C   UNL     1     -12.671  16.485  -9.326  1.00  0.00     0.054 A 
ATOM     16  C   UNL     1     -12.222  15.402 -10.020  1.00  0.00     0.062 A 
ATOM     17  N   UNL     1     -13.701  17.138  -9.671  1.00  0.00    -0.346 N 
ATOM     18  C   UNL     1     -12.937  15.049 -11.127  1.00  0.00     0.236 C 
ATOM     19  C   UNL     1     -14.298  16.736 -10.703  1.00  0.00     0.193 C 
ATOM     20  N   UNL     1     -13.964  15.750 -11.416  1.00  0.00    -0.246 NA
ATOM     21  H   UNL     1     -14.017  17.918  -9.159  1.00  0.00     0.167 HD
BRANCH  14  22
ATOM     22  O   UNL     1     -10.553  13.688 -10.179  1.00  0.00    -0.490 OA
BRANCH  22  23
ATOM     23  C   UNL     1      -9.831  12.692  -9.496  1.00  0.00     0.178 C 
ATOM     24  C   UNL     1     -10.720  11.625  -8.856  1.00  0.00     0.073 C 
ATOM     25  C   UNL     1      -8.930  12.034 -10.554  1.00  0.00     0.073 C 
ATOM     26  C   UNL     1      -9.906  10.400  -8.453  1.00  0.00     0.164 C 
ATOM     27  C   UNL     1      -8.246  10.786 -10.006  1.00  0.00     0.164 C 
ATOM     28  O   UNL     1      -9.212   9.874  -9.558  1.00  0.00    -0.381 OA
ENDBRANCH  22  23
ENDBRANCH  14  22
BRANCH  18  29
ATOM     29  N   UNL     1     -12.828  14.112 -11.995  1.00  0.00    -0.355 N 
ATOM     30  H   UNL     1     -12.038  13.452 -11.769  1.00  0.00     0.163 HD
BRANCH  29  31
ATOM     31  C   UNL     1     -13.413  13.745 -13.073  1.00  0.00     0.102 A 
ATOM     32  C   UNL     1     -13.604  14.542 -14.149  1.00  0.00     0.190 A 
ATOM     33  C   UNL     1     -13.893  12.474 -13.188  1.00  0.00     0.068 A 
ATOM     34  O   UNL     1     -13.261  15.718 -14.288  1.00  0.00    -0.451 OA
ATOM     35  C   UNL     1     -14.232  14.123 -15.255  1.00  0.00     0.168 A 
ATOM     36  C   UNL     1     -14.526  12.062 -14.304  1.00  0.00     0.027 A 
ATOM     37  C   UNL     1     -13.610  16.142 -15.605  1.00  0.00     0.468 C 
ATOM     38  O   UNL     1     -14.298  15.004 -16.111  1.00  0.00    -0.454 OA
ATOM     39  C   UNL     1     -14.703  12.877 -15.353  1.00  0.00     0.052 A 
ATOM     40  Cl  UNL     1     -13.770  11.271 -11.936  1.00  0.00    -0.082 Cl
ENDBRANCH  29  31
ENDBRANCH  18  29
ENDBRANCH   1  11
TORSDOF 8
