MODEL 1
REMARK VINA RESULT:    -9.200      0.000      0.000
REMARK INTER + INTRA:         -15.298
REMARK INTER:                 -13.502
REMARK INTRA:                  -1.796
REMARK UNBOUND:                -1.796
REMARK SMILES CN1CCN(CCOc2cc3c(c(OC4CCOCC4)c2)C(Nc2c(Cl)ccc4c2OCO4)N=CN3)CC1
REMARK SMILES IDX 8 1 7 2 6 3 5 4 2 5 3 6 38 7 4 8 37 9 1 10 9 11 21 12 10 13
REMARK SMILES IDX 13 14 11 15 12 16 36 17 22 18 35 19 34 20 14 22 15 23 16 24
REMARK SMILES IDX 20 25 17 26 19 27 18 28 23 29 24 31 30 32 25 33 31 34 29 35
REMARK SMILES IDX 27 36 32 37 33 38 28 39 26 40
REMARK H PARENT 36 21 23 30
ROOT
ATOM      1  O   UNL     1      -9.222  16.051  -6.334  1.00  0.00    -0.492 OA
ENDROOT
BRANCH   1   2
ATOM      2  C   UNL     1      -7.875  15.666  -6.475  1.00  0.00     0.245 C 
BRANCH   2   3
ATOM      3  C   UNL     1      -7.432  14.673  -5.387  1.00  0.00     0.126 C 
BRANCH   3   4
ATOM      4  N   UNL     1      -8.179  14.709  -4.135  1.00  0.00    -0.297 NA
ATOM      5  N   UNL     1      -8.570  13.787  -1.389  1.00  0.00    -0.304 NA
ATOM      6  C   UNL     1      -9.393  13.300  -2.481  1.00  0.00     0.099 C 
ATOM      7  C   UNL     1      -8.109  15.131  -1.689  1.00  0.00     0.099 C 
ATOM      8  C   UNL     1      -8.653  13.364  -3.825  1.00  0.00     0.100 C 
ATOM      9  C   UNL     1      -7.349  15.164  -3.029  1.00  0.00     0.100 C 
ATOM     10  C   UNL     1      -9.322  13.769  -0.146  1.00  0.00     0.105 C 
ENDBRANCH   3   4
ENDBRANCH   2   3
ENDBRANCH   1   2
BRANCH   1  11
ATOM     11  C   UNL     1     -10.019  15.853  -7.434  1.00  0.00     0.125 A 
ATOM     12  C   UNL     1      -9.757  14.888  -8.335  1.00  0.00     0.093 A 
ATOM     13  C   UNL     1     -11.109  16.590  -7.679  1.00  0.00     0.073 A 
ATOM     14  C   UNL     1     -10.503  14.624  -9.432  1.00  0.00     0.132 A 
ATOM     15  C   UNL     1     -11.876  16.371  -8.756  1.00  0.00     0.054 A 
ATOM     16  C   UNL     1     -11.605  15.391  -9.664  1.00  0.00     0.062 A 
ATOM     17  N   UNL     1     -12.874  17.144  -8.864  1.00  0.00    -0.346 N 
ATOM     18  C   UNL     1     -12.465  15.282 -10.717  1.00  0.00     0.236 C 
ATOM     19  C   UNL     1     -13.614  16.965  -9.865  1.00  0.00     0.193 C 
ATOM     20  N   UNL     1     -13.451  16.092 -10.762  1.00  0.00    -0.246 NA
ATOM     21  H   UNL     1     -13.061  17.846  -8.199  1.00  0.00     0.167 HD
BRANCH  14  22
ATOM     22  O   UNL     1     -10.124  13.615 -10.298  1.00  0.00    -0.490 OA
BRANCH  22  23
ATOM     23  C   UNL     1     -10.045  12.265  -9.910  1.00  0.00     0.178 C 
ATOM     24  C   UNL     1     -11.100  11.864  -8.878  1.00  0.00     0.073 C 
ATOM     25  C   UNL     1     -10.258  11.450 -11.196  1.00  0.00     0.073 C 
ATOM     26  C   UNL     1     -11.210  10.347  -8.764  1.00  0.00     0.164 C 
ATOM     27  C   UNL     1     -10.417   9.964 -10.895  1.00  0.00     0.164 C 
ATOM     28  O   UNL     1     -11.492   9.770 -10.016  1.00  0.00    -0.381 OA
ENDBRANCH  22  23
ENDBRANCH  14  22
BRANCH  18  29
ATOM     29  N   UNL     1     -12.537  14.499 -11.730  1.00  0.00    -0.355 N 
ATOM     30  H   UNL     1     -11.620  14.017 -11.924  1.00  0.00     0.163 HD
BRANCH  29  31
ATOM     31  C   UNL     1     -13.417  14.132 -12.584  1.00  0.00     0.102 A 
ATOM     32  C   UNL     1     -13.692  14.794 -13.731  1.00  0.00     0.190 A 
ATOM     33  C   UNL     1     -14.151  13.004 -12.364  1.00  0.00     0.068 A 
ATOM     34  O   UNL     1     -13.166  15.827 -14.152  1.00  0.00    -0.451 OA
ATOM     35  C   UNL     1     -14.629  14.383 -14.595  1.00  0.00     0.168 A 
ATOM     36  C   UNL     1     -15.094  12.600 -13.237  1.00  0.00     0.027 A 
ATOM     37  C   UNL     1     -13.721  16.133 -15.430  1.00  0.00     0.468 C 
ATOM     38  O   UNL     1     -14.717  15.127 -15.570  1.00  0.00    -0.454 OA
ATOM     39  C   UNL     1     -15.346  13.279 -14.364  1.00  0.00     0.052 A 
ATOM     40  Cl  UNL     1     -13.979  11.992 -10.958  1.00  0.00    -0.082 Cl
ENDBRANCH  29  31
ENDBRANCH  18  29
ENDBRANCH   1  11
TORSDOF 8
ENDMDL
MODEL 2
REMARK VINA RESULT:    -9.044      1.553      2.020
REMARK INTER + INTRA:         -15.070
REMARK INTER:                 -13.146
REMARK INTRA:                  -1.925
REMARK UNBOUND:                -1.796
REMARK SMILES CN1CCN(CCOc2cc3c(c(OC4CCOCC4)c2)C(Nc2c(Cl)ccc4c2OCO4)N=CN3)CC1
REMARK SMILES IDX 8 1 7 2 6 3 5 4 2 5 3 6 38 7 4 8 37 9 1 10 9 11 21 12 10 13
REMARK SMILES IDX 13 14 11 15 12 16 36 17 22 18 35 19 34 20 14 22 15 23 16 24
REMARK SMILES IDX 20 25 17 26 19 27 18 28 23 29 24 31 30 32 25 33 31 34 29 35
REMARK SMILES IDX 27 36 32 37 33 38 28 39 26 40
REMARK H PARENT 36 21 23 30
ROOT
ATOM      1  O   UNL     1      -9.401  16.105  -6.257  1.00  0.00    -0.492 OA
ENDROOT
BRANCH   1   2
ATOM      2  C   UNL     1      -8.016  15.889  -6.380  1.00  0.00     0.245 C 
BRANCH   2   3
ATOM      3  C   UNL     1      -7.477  14.913  -5.320  1.00  0.00     0.126 C 
BRANCH   3   4
ATOM      4  N   UNL     1      -8.196  14.876  -4.051  1.00  0.00    -0.297 NA
ATOM      5  N   UNL     1      -8.488  13.843  -1.333  1.00  0.00    -0.304 NA
ATOM      6  C   UNL     1      -9.319  13.364  -2.423  1.00  0.00     0.099 C 
ATOM      7  C   UNL     1      -8.084  15.212  -1.594  1.00  0.00     0.099 C 
ATOM      8  C   UNL     1      -8.613  13.504  -3.780  1.00  0.00     0.100 C 
ATOM      9  C   UNL     1      -7.358  15.322  -2.948  1.00  0.00     0.100 C 
ATOM     10  C   UNL     1      -9.210  13.752  -0.075  1.00  0.00     0.105 C 
ENDBRANCH   3   4
ENDBRANCH   2   3
ENDBRANCH   1   2
BRANCH   1  11
ATOM     11  C   UNL     1     -10.142  15.905  -7.396  1.00  0.00     0.125 A 
ATOM     12  C   UNL     1      -9.815  14.959  -8.297  1.00  0.00     0.093 A 
ATOM     13  C   UNL     1     -11.236  16.619  -7.681  1.00  0.00     0.073 A 
ATOM     14  C   UNL     1     -10.503  14.695  -9.431  1.00  0.00     0.132 A 
ATOM     15  C   UNL     1     -11.947  16.398  -8.796  1.00  0.00     0.054 A 
ATOM     16  C   UNL     1     -11.611  15.439  -9.703  1.00  0.00     0.062 A 
ATOM     17  N   UNL     1     -12.958  17.149  -8.939  1.00  0.00    -0.346 N 
ATOM     18  C   UNL     1     -12.419  15.325 -10.796  1.00  0.00     0.236 C 
ATOM     19  C   UNL     1     -13.647  16.968  -9.977  1.00  0.00     0.193 C 
ATOM     20  N   UNL     1     -13.421  16.113 -10.876  1.00  0.00    -0.246 NA
ATOM     21  H   UNL     1     -13.192  17.838  -8.274  1.00  0.00     0.167 HD
BRANCH  14  22
ATOM     22  O   UNL     1     -10.061  13.708 -10.292  1.00  0.00    -0.490 OA
BRANCH  22  23
ATOM     23  C   UNL     1      -9.889  12.368  -9.895  1.00  0.00     0.178 C 
ATOM     24  C   UNL     1     -10.939  11.891  -8.891  1.00  0.00     0.073 C 
ATOM     25  C   UNL     1     -10.004  11.537 -11.184  1.00  0.00     0.073 C 
ATOM     26  C   UNL     1     -10.937  10.370  -8.774  1.00  0.00     0.164 C 
ATOM     27  C   UNL     1     -10.057  10.043 -10.880  1.00  0.00     0.164 C 
ATOM     28  O   UNL     1     -11.139   9.771 -10.031  1.00  0.00    -0.381 OA
ENDBRANCH  22  23
ENDBRANCH  14  22
BRANCH  18  29
ATOM     29  N   UNL     1     -12.425  14.556 -11.822  1.00  0.00    -0.355 N 
ATOM     30  H   UNL     1     -11.478  14.500 -12.281  1.00  0.00     0.163 HD
BRANCH  29  31
ATOM     31  C   UNL     1     -13.265  13.828 -12.457  1.00  0.00     0.102 A 
ATOM     32  C   UNL     1     -13.762  12.656 -11.997  1.00  0.00     0.190 A 
ATOM     33  C   UNL     1     -13.716  14.219 -13.682  1.00  0.00     0.068 A 
ATOM     34  O   UNL     1     -13.512  12.099 -10.927  1.00  0.00    -0.451 OA
ATOM     35  C   UNL     1     -14.631  11.917 -12.698  1.00  0.00     0.168 A 
ATOM     36  C   UNL     1     -14.590  13.467 -14.381  1.00  0.00     0.027 A 
ATOM     37  C   UNL     1     -14.308  10.918 -10.832  1.00  0.00     0.468 C 
ATOM     38  O   UNL     1     -14.955  10.892 -12.099  1.00  0.00    -0.454 OA
ATOM     39  C   UNL     1     -15.061  12.309 -13.900  1.00  0.00     0.052 A 
ATOM     40  Cl  UNL     1     -13.217  15.684 -14.480  1.00  0.00    -0.082 Cl
ENDBRANCH  29  31
ENDBRANCH  18  29
ENDBRANCH   1  11
TORSDOF 8
ENDMDL
MODEL 3
REMARK VINA RESULT:    -8.914      1.642      2.576
REMARK INTER + INTRA:         -14.879
REMARK INTER:                 -12.715
REMARK INTRA:                  -2.164
REMARK UNBOUND:                -1.796
REMARK SMILES CN1CCN(CCOc2cc3c(c(OC4CCOCC4)c2)C(Nc2c(Cl)ccc4c2OCO4)N=CN3)CC1
REMARK SMILES IDX 8 1 7 2 6 3 5 4 2 5 3 6 38 7 4 8 37 9 1 10 9 11 21 12 10 13
REMARK SMILES IDX 13 14 11 15 12 16 36 17 22 18 35 19 34 20 14 22 15 23 16 24
REMARK SMILES IDX 20 25 17 26 19 27 18 28 23 29 24 31 30 32 25 33 31 34 29 35
REMARK SMILES IDX 27 36 32 37 33 38 28 39 26 40
REMARK H PARENT 36 21 23 30
ROOT
ATOM      1  O   UNL     1      -9.404  15.822  -6.643  1.00  0.00    -0.492 OA
ENDROOT
BRANCH   1   2
ATOM      2  C   UNL     1      -8.251  15.015  -6.604  1.00  0.00     0.245 C 
BRANCH   2   3
ATOM      3  C   UNL     1      -8.244  14.058  -5.400  1.00  0.00     0.126 C 
BRANCH   3   4
ATOM      4  N   UNL     1      -7.969  12.655  -5.691  1.00  0.00    -0.297 NA
ATOM      5  N   UNL     1      -7.571  10.498  -7.623  1.00  0.00    -0.304 NA
ATOM      6  C   UNL     1      -8.819  10.651  -6.897  1.00  0.00     0.099 C 
ATOM      7  C   UNL     1      -6.478  11.027  -6.827  1.00  0.00     0.099 C 
ATOM      8  C   UNL     1      -9.064  12.110  -6.486  1.00  0.00     0.100 C 
ATOM      9  C   UNL     1      -6.736  12.498  -6.448  1.00  0.00     0.100 C 
ATOM     10  C   UNL     1      -7.343   9.099  -7.941  1.00  0.00     0.105 C 
ENDBRANCH   3   4
ENDBRANCH   2   3
ENDBRANCH   1   2
BRANCH   1  11
ATOM     11  C   UNL     1     -10.206  15.665  -7.747  1.00  0.00     0.125 A 
ATOM     12  C   UNL     1      -9.962  14.720  -8.673  1.00  0.00     0.093 A 
ATOM     13  C   UNL     1     -11.285  16.424  -7.968  1.00  0.00     0.073 A 
ATOM     14  C   UNL     1     -10.714  14.497  -9.775  1.00  0.00     0.132 A 
ATOM     15  C   UNL     1     -12.058  16.246  -9.050  1.00  0.00     0.054 A 
ATOM     16  C   UNL     1     -11.804  15.287  -9.983  1.00  0.00     0.062 A 
ATOM     17  N   UNL     1     -13.045  17.037  -9.134  1.00  0.00    -0.346 N 
ATOM     18  C   UNL     1     -12.669  15.218 -11.036  1.00  0.00     0.236 C 
ATOM     19  C   UNL     1     -13.790  16.896 -10.138  1.00  0.00     0.193 C 
ATOM     20  N   UNL     1     -13.642  16.045 -11.058  1.00  0.00    -0.246 NA
ATOM     21  H   UNL     1     -13.219  17.725  -8.451  1.00  0.00     0.167 HD
BRANCH  14  22
ATOM     22  O   UNL     1     -10.353  13.505 -10.668  1.00  0.00    -0.490 OA
BRANCH  22  23
ATOM     23  C   UNL     1     -10.326  12.141 -10.325  1.00  0.00     0.178 C 
ATOM     24  C   UNL     1     -11.443  11.731  -9.364  1.00  0.00     0.073 C 
ATOM     25  C   UNL     1     -10.490  11.377 -11.649  1.00  0.00     0.073 C 
ATOM     26  C   UNL     1     -11.595  10.215  -9.311  1.00  0.00     0.164 C 
ATOM     27  C   UNL     1     -10.700   9.885 -11.410  1.00  0.00     0.164 C 
ATOM     28  O   UNL     1     -11.824   9.689 -10.596  1.00  0.00    -0.381 OA
ENDBRANCH  22  23
ENDBRANCH  14  22
BRANCH  18  29
ATOM     29  N   UNL     1     -12.755  14.464 -12.069  1.00  0.00    -0.355 N 
ATOM     30  H   UNL     1     -11.849  13.967 -12.274  1.00  0.00     0.163 HD
BRANCH  29  31
ATOM     31  C   UNL     1     -13.640  14.139 -12.935  1.00  0.00     0.102 A 
ATOM     32  C   UNL     1     -13.877  14.819 -14.080  1.00  0.00     0.190 A 
ATOM     33  C   UNL     1     -14.421  13.040 -12.730  1.00  0.00     0.068 A 
ATOM     34  O   UNL     1     -13.306  15.833 -14.487  1.00  0.00    -0.451 OA
ATOM     35  C   UNL     1     -14.822  14.453 -14.955  1.00  0.00     0.168 A 
ATOM     36  C   UNL     1     -15.371  12.680 -13.616  1.00  0.00     0.027 A 
ATOM     37  C   UNL     1     -13.836  16.171 -15.768  1.00  0.00     0.468 C 
ATOM     38  O   UNL     1     -14.870  15.207 -15.926  1.00  0.00    -0.454 OA
ATOM     39  C   UNL     1     -15.584  13.377 -14.740  1.00  0.00     0.052 A 
ATOM     40  Cl  UNL     1     -14.304  12.011 -11.331  1.00  0.00    -0.082 Cl
ENDBRANCH  29  31
ENDBRANCH  18  29
ENDBRANCH   1  11
TORSDOF 8
ENDMDL
MODEL 4
REMARK VINA RESULT:    -8.875      1.754      2.567
REMARK INTER + INTRA:         -14.822
REMARK INTER:                 -12.880
REMARK INTRA:                  -1.942
REMARK UNBOUND:                -1.796
REMARK SMILES CN1CCN(CCOc2cc3c(c(OC4CCOCC4)c2)C(Nc2c(Cl)ccc4c2OCO4)N=CN3)CC1
REMARK SMILES IDX 8 1 7 2 6 3 5 4 2 5 3 6 38 7 4 8 37 9 1 10 9 11 21 12 10 13
REMARK SMILES IDX 13 14 11 15 12 16 36 17 22 18 35 19 34 20 14 22 15 23 16 24
REMARK SMILES IDX 20 25 17 26 19 27 18 28 23 29 24 31 30 32 25 33 31 34 29 35
REMARK SMILES IDX 27 36 32 37 33 38 28 39 26 40
REMARK H PARENT 36 21 23 30
ROOT
ATOM      1  O   UNL     1     -10.156  12.569  -6.547  1.00  0.00    -0.492 OA
ENDROOT
BRANCH   1   2
ATOM      2  C   UNL     1      -8.780  12.272  -6.580  1.00  0.00     0.245 C 
BRANCH   2   3
ATOM      3  C   UNL     1      -7.964  13.163  -5.629  1.00  0.00     0.126 C 
BRANCH   3   4
ATOM      4  N   UNL     1      -8.443  14.530  -5.453  1.00  0.00    -0.297 NA
ATOM      5  N   UNL     1      -7.935  17.325  -4.764  1.00  0.00    -0.304 NA
ATOM      6  C   UNL     1      -8.581  16.416  -3.834  1.00  0.00     0.099 C 
ATOM      7  C   UNL     1      -8.219  16.909  -6.126  1.00  0.00     0.099 C 
ATOM      8  C   UNL     1      -8.170  14.958  -4.085  1.00  0.00     0.100 C 
ATOM      9  C   UNL     1      -7.775  15.452  -6.360  1.00  0.00     0.100 C 
ATOM     10  C   UNL     1      -8.394  18.684  -4.537  1.00  0.00     0.105 C 
ENDBRANCH   3   4
ENDBRANCH   2   3
ENDBRANCH   1   2
BRANCH   1  11
ATOM     11  C   UNL     1     -10.706  12.993  -7.732  1.00  0.00     0.125 A 
ATOM     12  C   UNL     1     -10.831  12.170  -8.790  1.00  0.00     0.093 A 
ATOM     13  C   UNL     1     -11.164  14.237  -7.911  1.00  0.00     0.073 A 
ATOM     14  C   UNL     1     -11.374  12.512  -9.981  1.00  0.00     0.132 A 
ATOM     15  C   UNL     1     -11.704  14.624  -9.076  1.00  0.00     0.054 A 
ATOM     16  C   UNL     1     -11.828  13.786 -10.143  1.00  0.00     0.062 A 
ATOM     17  N   UNL     1     -12.095  15.829  -9.105  1.00  0.00    -0.346 N 
ATOM     18  C   UNL     1     -12.392  14.312 -11.268  1.00  0.00     0.236 C 
ATOM     19  C   UNL     1     -12.606  16.224 -10.185  1.00  0.00     0.193 C 
ATOM     20  N   UNL     1     -12.763  15.532 -11.228  1.00  0.00    -0.246 NA
ATOM     21  H   UNL     1     -12.002  16.424  -8.326  1.00  0.00     0.167 HD
BRANCH  14  22
ATOM     22  O   UNL     1     -11.432  11.583 -11.004  1.00  0.00    -0.490 OA
BRANCH  22  23
ATOM     23  C   UNL     1     -10.889  10.290 -10.894  1.00  0.00     0.178 C 
ATOM     24  C   UNL     1     -11.898   9.178 -11.185  1.00  0.00     0.073 C 
ATOM     25  C   UNL     1      -9.753  10.228 -11.928  1.00  0.00     0.073 C 
ATOM     26  C   UNL     1     -11.196   7.843 -11.410  1.00  0.00     0.164 C 
ATOM     27  C   UNL     1      -9.212   8.810 -12.078  1.00  0.00     0.164 C 
ATOM     28  O   UNL     1     -10.250   7.943 -12.447  1.00  0.00    -0.381 OA
ENDBRANCH  22  23
ENDBRANCH  14  22
BRANCH  18  29
ATOM     29  N   UNL     1     -12.672  13.840 -12.426  1.00  0.00    -0.355 N 
ATOM     30  H   UNL     1     -11.847  13.356 -12.868  1.00  0.00     0.163 HD
BRANCH  29  31
ATOM     31  C   UNL     1     -13.683  13.789 -13.211  1.00  0.00     0.102 A 
ATOM     32  C   UNL     1     -13.886  14.628 -14.252  1.00  0.00     0.190 A 
ATOM     33  C   UNL     1     -14.645  12.842 -13.020  1.00  0.00     0.068 A 
ATOM     34  O   UNL     1     -13.164  15.555 -14.626  1.00  0.00    -0.451 OA
ATOM     35  C   UNL     1     -14.963  14.549 -15.043  1.00  0.00     0.168 A 
ATOM     36  C   UNL     1     -15.727  12.772 -13.820  1.00  0.00     0.027 A 
ATOM     37  C   UNL     1     -13.735  16.130 -15.801  1.00  0.00     0.468 C 
ATOM     38  O   UNL     1     -14.952  15.404 -15.927  1.00  0.00    -0.454 OA
ATOM     39  C   UNL     1     -15.902  13.620 -14.842  1.00  0.00     0.052 A 
ATOM     40  Cl  UNL     1     -14.605  11.657 -11.746  1.00  0.00    -0.082 Cl
ENDBRANCH  29  31
ENDBRANCH  18  29
ENDBRANCH   1  11
TORSDOF 8
ENDMDL
MODEL 5
REMARK VINA RESULT:    -8.855      2.887      4.101
REMARK INTER + INTRA:         -14.792
REMARK INTER:                 -12.604
REMARK INTRA:                  -2.188
REMARK UNBOUND:                -1.796
REMARK SMILES CN1CCN(CCOc2cc3c(c(OC4CCOCC4)c2)C(Nc2c(Cl)ccc4c2OCO4)N=CN3)CC1
REMARK SMILES IDX 8 1 7 2 6 3 5 4 2 5 3 6 38 7 4 8 37 9 1 10 9 11 21 12 10 13
REMARK SMILES IDX 13 14 11 15 12 16 36 17 22 18 35 19 34 20 14 22 15 23 16 24
REMARK SMILES IDX 20 25 17 26 19 27 18 28 23 29 24 31 30 32 25 33 31 34 29 35
REMARK SMILES IDX 27 36 32 37 33 38 28 39 26 40
REMARK H PARENT 36 21 23 30
ROOT
ATOM      1  O   UNL     1     -10.419  15.867  -8.007  1.00  0.00    -0.492 OA
ENDROOT
BRANCH   1   2
ATOM      2  C   UNL     1      -9.417  14.885  -7.894  1.00  0.00     0.245 C 
BRANCH   2   3
ATOM      3  C   UNL     1      -9.783  13.786  -6.882  1.00  0.00     0.126 C 
BRANCH   3   4
ATOM      4  N   UNL     1      -9.552  12.410  -7.310  1.00  0.00    -0.297 NA
ATOM      5  N   UNL     1      -9.566  10.372  -9.405  1.00  0.00    -0.304 NA
ATOM      6  C   UNL     1     -10.616  10.444  -8.404  1.00  0.00     0.099 C 
ATOM      7  C   UNL     1      -8.331  10.895  -8.852  1.00  0.00     0.099 C 
ATOM      8  C   UNL     1     -10.791  11.870  -7.863  1.00  0.00     0.100 C 
ATOM      9  C   UNL     1      -8.525  12.335  -8.338  1.00  0.00     0.100 C 
ATOM     10  C   UNL     1      -9.389   9.000  -9.849  1.00  0.00     0.105 C 
ENDBRANCH   3   4
ENDBRANCH   2   3
ENDBRANCH   1   2
BRANCH   1  11
ATOM     11  C   UNL     1     -11.322  15.686  -9.026  1.00  0.00     0.125 A 
ATOM     12  C   UNL     1     -11.200  14.679  -9.911  1.00  0.00     0.093 A 
ATOM     13  C   UNL     1     -12.383  16.482  -9.201  1.00  0.00     0.073 A 
ATOM     14  C   UNL     1     -12.056  14.429 -10.929  1.00  0.00     0.132 A 
ATOM     15  C   UNL     1     -13.254  16.279 -10.200  1.00  0.00     0.054 A 
ATOM     16  C   UNL     1     -13.125  15.257 -11.091  1.00  0.00     0.062 A 
ATOM     17  N   UNL     1     -14.210  17.110 -10.248  1.00  0.00    -0.346 N 
ATOM     18  C   UNL     1     -14.081  15.170 -12.061  1.00  0.00     0.236 C 
ATOM     19  C   UNL     1     -15.046  16.948 -11.174  1.00  0.00     0.193 C 
ATOM     20  N   UNL     1     -15.015  16.040 -12.049  1.00  0.00    -0.246 NA
ATOM     21  H   UNL     1     -14.294  17.843  -9.595  1.00  0.00     0.167 HD
BRANCH  14  22
ATOM     22  O   UNL     1     -11.817  13.372 -11.787  1.00  0.00    -0.490 OA
BRANCH  22  23
ATOM     23  C   UNL     1     -11.947  12.027 -11.397  1.00  0.00     0.178 C 
ATOM     24  C   UNL     1     -13.297  11.705 -10.755  1.00  0.00     0.073 C 
ATOM     25  C   UNL     1     -11.789  11.204 -12.686  1.00  0.00     0.073 C 
ATOM     26  C   UNL     1     -13.529  10.200 -10.686  1.00  0.00     0.164 C 
ATOM     27  C   UNL     1     -12.125   9.734 -12.455  1.00  0.00     0.164 C 
ATOM     28  O   UNL     1     -13.433   9.619 -11.964  1.00  0.00    -0.381 OA
ENDBRANCH  22  23
ENDBRANCH  14  22
BRANCH  18  29
ATOM     29  N   UNL     1     -14.289  14.363 -13.035  1.00  0.00    -0.355 N 
ATOM     30  H   UNL     1     -14.095  13.362 -12.769  1.00  0.00     0.163 HD
BRANCH  29  31
ATOM     31  C   UNL     1     -14.671  14.428 -14.255  1.00  0.00     0.102 A 
ATOM     32  C   UNL     1     -15.774  13.817 -14.745  1.00  0.00     0.190 A 
ATOM     33  C   UNL     1     -13.947  15.150 -15.157  1.00  0.00     0.068 A 
ATOM     34  O   UNL     1     -16.584  13.117 -14.133  1.00  0.00    -0.451 OA
ATOM     35  C   UNL     1     -16.133  13.900 -16.032  1.00  0.00     0.168 A 
ATOM     36  C   UNL     1     -14.315  15.226 -16.451  1.00  0.00     0.027 A 
ATOM     37  C   UNL     1     -17.624  12.732 -15.032  1.00  0.00     0.468 C 
ATOM     38  O   UNL     1     -17.164  13.271 -16.266  1.00  0.00    -0.454 OA
ATOM     39  C   UNL     1     -15.412  14.605 -16.908  1.00  0.00     0.052 A 
ATOM     40  Cl  UNL     1     -12.491  16.018 -14.764  1.00  0.00    -0.082 Cl
ENDBRANCH  29  31
ENDBRANCH  18  29
ENDBRANCH   1  11
TORSDOF 8
ENDMDL
MODEL 6
REMARK VINA RESULT:    -8.836      2.256      2.960
REMARK INTER + INTRA:         -14.765
REMARK INTER:                 -13.164
REMARK INTRA:                  -1.601
REMARK UNBOUND:                -1.796
REMARK SMILES CN1CCN(CCOc2cc3c(c(OC4CCOCC4)c2)C(Nc2c(Cl)ccc4c2OCO4)N=CN3)CC1
REMARK SMILES IDX 8 1 7 2 6 3 5 4 2 5 3 6 38 7 4 8 37 9 1 10 9 11 21 12 10 13
REMARK SMILES IDX 13 14 11 15 12 16 36 17 22 18 35 19 34 20 14 22 15 23 16 24
REMARK SMILES IDX 20 25 17 26 19 27 18 28 23 29 24 31 30 32 25 33 31 34 29 35
REMARK SMILES IDX 27 36 32 37 33 38 28 39 26 40
REMARK H PARENT 36 21 23 30
ROOT
ATOM      1  O   UNL     1      -9.191  15.763  -6.280  1.00  0.00    -0.492 OA
ENDROOT
BRANCH   1   2
ATOM      2  C   UNL     1      -8.215  16.775  -6.335  1.00  0.00     0.245 C 
BRANCH   2   3
ATOM      3  C   UNL     1      -7.378  16.854  -5.046  1.00  0.00     0.126 C 
BRANCH   3   4
ATOM      4  N   UNL     1      -7.063  18.194  -4.562  1.00  0.00    -0.297 NA
ATOM      5  N   UNL     1      -7.527  21.079  -4.605  1.00  0.00    -0.304 NA
ATOM      6  C   UNL     1      -6.388  20.480  -5.277  1.00  0.00     0.099 C 
ATOM      7  C   UNL     1      -7.909  20.257  -3.471  1.00  0.00     0.099 C 
ATOM      8  C   UNL     1      -6.670  19.029  -5.693  1.00  0.00     0.100 C 
ATOM      9  C   UNL     1      -8.211  18.813  -3.916  1.00  0.00     0.100 C 
ATOM     10  C   UNL     1      -7.203  22.428  -4.173  1.00  0.00     0.105 C 
ENDBRANCH   3   4
ENDBRANCH   2   3
ENDBRANCH   1   2
BRANCH   1  11
ATOM     11  C   UNL     1      -9.980  15.632  -7.396  1.00  0.00     0.125 A 
ATOM     12  C   UNL     1      -9.740  14.691  -8.329  1.00  0.00     0.093 A 
ATOM     13  C   UNL     1     -11.041  16.414  -7.626  1.00  0.00     0.073 A 
ATOM     14  C   UNL     1     -10.480  14.494  -9.444  1.00  0.00     0.132 A 
ATOM     15  C   UNL     1     -11.801  16.261  -8.720  1.00  0.00     0.054 A 
ATOM     16  C   UNL     1     -11.552  15.306  -9.660  1.00  0.00     0.062 A 
ATOM     17  N   UNL     1     -12.771  17.071  -8.811  1.00  0.00    -0.346 N 
ATOM     18  C   UNL     1     -12.402  15.264 -10.726  1.00  0.00     0.236 C 
ATOM     19  C   UNL     1     -13.504  16.955  -9.827  1.00  0.00     0.193 C 
ATOM     20  N   UNL     1     -13.359  16.110 -10.753  1.00  0.00    -0.246 NA
ATOM     21  H   UNL     1     -12.942  17.756  -8.124  1.00  0.00     0.167 HD
BRANCH  14  22
ATOM     22  O   UNL     1     -10.125  13.504 -10.341  1.00  0.00    -0.490 OA
BRANCH  22  23
ATOM     23  C   UNL     1      -9.985  12.153  -9.972  1.00  0.00     0.178 C 
ATOM     24  C   UNL     1     -10.980  11.707  -8.900  1.00  0.00     0.073 C 
ATOM     25  C   UNL     1     -10.228  11.345 -11.258  1.00  0.00     0.073 C 
ATOM     26  C   UNL     1     -11.035  10.186  -8.800  1.00  0.00     0.164 C 
ATOM     27  C   UNL     1     -10.325   9.851 -10.968  1.00  0.00     0.164 C 
ATOM     28  O   UNL     1     -11.354   9.613 -10.045  1.00  0.00    -0.381 OA
ENDBRANCH  22  23
ENDBRANCH  14  22
BRANCH  18  29
ATOM     29  N   UNL     1     -12.487  14.522 -11.767  1.00  0.00    -0.355 N 
ATOM     30  H   UNL     1     -11.557  14.105 -12.034  1.00  0.00     0.163 HD
BRANCH  29  31
ATOM     31  C   UNL     1     -13.393  14.138 -12.587  1.00  0.00     0.102 A 
ATOM     32  C   UNL     1     -13.717  14.788 -13.728  1.00  0.00     0.190 A 
ATOM     33  C   UNL     1     -14.104  13.003 -12.332  1.00  0.00     0.068 A 
ATOM     34  O   UNL     1     -13.220  15.824 -14.174  1.00  0.00    -0.451 OA
ATOM     35  C   UNL     1     -14.680  14.359 -14.554  1.00  0.00     0.168 A 
ATOM     36  C   UNL     1     -15.073  12.581 -13.168  1.00  0.00     0.027 A 
ATOM     37  C   UNL     1     -13.824  16.114 -15.434  1.00  0.00     0.468 C 
ATOM     38  O   UNL     1     -14.813  15.095 -15.531  1.00  0.00    -0.454 OA
ATOM     39  C   UNL     1     -15.374  13.249 -14.290  1.00  0.00     0.052 A 
ATOM     40  Cl  UNL     1     -13.870  12.003 -10.927  1.00  0.00    -0.082 Cl
ENDBRANCH  29  31
ENDBRANCH  18  29
ENDBRANCH   1  11
TORSDOF 8
ENDMDL
MODEL 7
REMARK VINA RESULT:    -8.744      2.692      3.641
REMARK INTER + INTRA:         -14.630
REMARK INTER:                 -12.858
REMARK INTRA:                  -1.772
REMARK UNBOUND:                -1.796
REMARK SMILES CN1CCN(CCOc2cc3c(c(OC4CCOCC4)c2)C(Nc2c(Cl)ccc4c2OCO4)N=CN3)CC1
REMARK SMILES IDX 8 1 7 2 6 3 5 4 2 5 3 6 38 7 4 8 37 9 1 10 9 11 21 12 10 13
REMARK SMILES IDX 13 14 11 15 12 16 36 17 22 18 35 19 34 20 14 22 15 23 16 24
REMARK SMILES IDX 20 25 17 26 19 27 18 28 23 29 24 31 30 32 25 33 31 34 29 35
REMARK SMILES IDX 27 36 32 37 33 38 28 39 26 40
REMARK H PARENT 36 21 23 30
ROOT
ATOM      1  O   UNL     1      -9.372  16.117  -6.259  1.00  0.00    -0.492 OA
ENDROOT
BRANCH   1   2
ATOM      2  C   UNL     1      -8.402  17.133  -6.349  1.00  0.00     0.245 C 
BRANCH   2   3
ATOM      3  C   UNL     1      -7.424  17.118  -5.163  1.00  0.00     0.126 C 
BRANCH   3   4
ATOM      4  N   UNL     1      -7.091  18.415  -4.583  1.00  0.00    -0.297 NA
ATOM      5  N   UNL     1      -7.503  21.305  -4.431  1.00  0.00    -0.304 NA
ATOM      6  C   UNL     1      -6.366  20.732  -5.130  1.00  0.00     0.099 C 
ATOM      7  C   UNL     1      -7.915  20.413  -3.362  1.00  0.00     0.099 C 
ATOM      8  C   UNL     1      -6.669  19.319  -5.648  1.00  0.00     0.100 C 
ATOM      9  C   UNL     1      -8.236  19.010  -3.910  1.00  0.00     0.100 C 
ATOM     10  C   UNL     1      -7.160  22.614  -3.904  1.00  0.00     0.105 C 
ENDBRANCH   3   4
ENDBRANCH   2   3
ENDBRANCH   1   2
BRANCH   1  11
ATOM     11  C   UNL     1     -10.119  15.901  -7.391  1.00  0.00     0.125 A 
ATOM     12  C   UNL     1      -9.788  14.957  -8.291  1.00  0.00     0.093 A 
ATOM     13  C   UNL     1     -11.226  16.599  -7.669  1.00  0.00     0.073 A 
ATOM     14  C   UNL     1     -10.482  14.678  -9.418  1.00  0.00     0.132 A 
ATOM     15  C   UNL     1     -11.944  16.364  -8.777  1.00  0.00     0.054 A 
ATOM     16  C   UNL     1     -11.602  15.406  -9.683  1.00  0.00     0.062 A 
ATOM     17  N   UNL     1     -12.966  17.100  -8.914  1.00  0.00    -0.346 N 
ATOM     18  C   UNL     1     -12.418  15.276 -10.769  1.00  0.00     0.236 C 
ATOM     19  C   UNL     1     -13.661  16.905  -9.945  1.00  0.00     0.193 C 
ATOM     20  N   UNL     1     -13.431  16.049 -10.843  1.00  0.00    -0.246 NA
ATOM     21  H   UNL     1     -13.204  17.788  -8.250  1.00  0.00     0.167 HD
BRANCH  14  22
ATOM     22  O   UNL     1     -10.033  13.693 -10.279  1.00  0.00    -0.490 OA
BRANCH  22  23
ATOM     23  C   UNL     1      -9.876  12.351  -9.888  1.00  0.00     0.178 C 
ATOM     24  C   UNL     1     -10.922  11.883  -8.876  1.00  0.00     0.073 C 
ATOM     25  C   UNL     1     -10.013  11.525 -11.178  1.00  0.00     0.073 C 
ATOM     26  C   UNL     1     -10.939  10.363  -8.764  1.00  0.00     0.164 C 
ATOM     27  C   UNL     1     -10.083  10.031 -10.879  1.00  0.00     0.164 C 
ATOM     28  O   UNL     1     -11.160   9.770 -10.020  1.00  0.00    -0.381 OA
ENDBRANCH  22  23
ENDBRANCH  14  22
BRANCH  18  29
ATOM     29  N   UNL     1     -12.422  14.503 -11.791  1.00  0.00    -0.355 N 
ATOM     30  H   UNL     1     -11.467  14.419 -12.229  1.00  0.00     0.163 HD
BRANCH  29  31
ATOM     31  C   UNL     1     -13.268  13.794 -12.442  1.00  0.00     0.102 A 
ATOM     32  C   UNL     1     -13.776  12.619 -12.006  1.00  0.00     0.190 A 
ATOM     33  C   UNL     1     -13.713  14.214 -13.660  1.00  0.00     0.068 A 
ATOM     34  O   UNL     1     -13.534  12.038 -10.946  1.00  0.00    -0.451 OA
ATOM     35  C   UNL     1     -14.651  11.901 -12.722  1.00  0.00     0.168 A 
ATOM     36  C   UNL     1     -14.591  13.483 -14.375  1.00  0.00     0.027 A 
ATOM     37  C   UNL     1     -14.341  10.863 -10.875  1.00  0.00     0.468 C 
ATOM     38  O   UNL     1     -14.985  10.868 -12.144  1.00  0.00    -0.454 OA
ATOM     39  C   UNL     1     -15.074  12.320 -13.918  1.00  0.00     0.052 A 
ATOM     40  Cl  UNL     1     -13.198  15.689 -14.428  1.00  0.00    -0.082 Cl
ENDBRANCH  29  31
ENDBRANCH  18  29
ENDBRANCH   1  11
TORSDOF 8
ENDMDL
MODEL 8
REMARK VINA RESULT:    -8.692      1.920      2.577
REMARK INTER + INTRA:         -14.553
REMARK INTER:                 -12.786
REMARK INTRA:                  -1.767
REMARK UNBOUND:                -1.796
REMARK SMILES CN1CCN(CCOc2cc3c(c(OC4CCOCC4)c2)C(Nc2c(Cl)ccc4c2OCO4)N=CN3)CC1
REMARK SMILES IDX 8 1 7 2 6 3 5 4 2 5 3 6 38 7 4 8 37 9 1 10 9 11 21 12 10 13
REMARK SMILES IDX 13 14 11 15 12 16 36 17 22 18 35 19 34 20 14 22 15 23 16 24
REMARK SMILES IDX 20 25 17 26 19 27 18 28 23 29 24 31 30 32 25 33 31 34 29 35
REMARK SMILES IDX 27 36 32 37 33 38 28 39 26 40
REMARK H PARENT 36 21 23 30
ROOT
ATOM      1  O   UNL     1      -9.767  16.393  -6.469  1.00  0.00    -0.492 OA
ENDROOT
BRANCH   1   2
ATOM      2  C   UNL     1      -8.863  17.467  -6.555  1.00  0.00     0.245 C 
BRANCH   2   3
ATOM      3  C   UNL     1      -7.566  17.208  -5.771  1.00  0.00     0.126 C 
BRANCH   3   4
ATOM      4  N   UNL     1      -6.673  16.191  -6.316  1.00  0.00    -0.297 NA
ATOM      5  N   UNL     1      -4.351  14.439  -6.027  1.00  0.00    -0.304 NA
ATOM      6  C   UNL     1      -4.289  15.666  -6.802  1.00  0.00     0.099 C 
ATOM      7  C   UNL     1      -5.706  13.920  -6.046  1.00  0.00     0.099 C 
ATOM      8  C   UNL     1      -5.306  16.704  -6.307  1.00  0.00     0.100 C 
ATOM      9  C   UNL     1      -6.705  14.971  -5.523  1.00  0.00     0.100 C 
ATOM     10  C   UNL     1      -3.419  13.461  -6.561  1.00  0.00     0.105 C 
ENDBRANCH   3   4
ENDBRANCH   2   3
ENDBRANCH   1   2
BRANCH   1  11
ATOM     11  C   UNL     1     -10.498  16.133  -7.603  1.00  0.00     0.125 A 
ATOM     12  C   UNL     1     -10.154  15.154  -8.460  1.00  0.00     0.093 A 
ATOM     13  C   UNL     1     -11.600  16.819  -7.924  1.00  0.00     0.073 A 
ATOM     14  C   UNL     1     -10.831  14.831  -9.585  1.00  0.00     0.132 A 
ATOM     15  C   UNL     1     -12.301  16.541  -9.033  1.00  0.00     0.054 A 
ATOM     16  C   UNL     1     -11.946  15.548  -9.896  1.00  0.00     0.062 A 
ATOM     17  N   UNL     1     -13.321  17.271  -9.215  1.00  0.00    -0.346 N 
ATOM     18  C   UNL     1     -12.746  15.375 -10.988  1.00  0.00     0.236 C 
ATOM     19  C   UNL     1     -14.000  17.036 -10.247  1.00  0.00     0.193 C 
ATOM     20  N   UNL     1     -13.757  16.145 -11.108  1.00  0.00    -0.246 NA
ATOM     21  H   UNL     1     -13.568  17.984  -8.582  1.00  0.00     0.167 HD
BRANCH  14  22
ATOM     22  O   UNL     1     -10.370  13.813 -10.400  1.00  0.00    -0.490 OA
BRANCH  22  23
ATOM     23  C   UNL     1     -10.240  12.483  -9.961  1.00  0.00     0.178 C 
ATOM     24  C   UNL     1     -11.319  12.062  -8.963  1.00  0.00     0.073 C 
ATOM     25  C   UNL     1     -10.353  11.616 -11.226  1.00  0.00     0.073 C 
ATOM     26  C   UNL     1     -11.357  10.546  -8.800  1.00  0.00     0.164 C 
ATOM     27  C   UNL     1     -10.450  10.134 -10.880  1.00  0.00     0.164 C 
ATOM     28  O   UNL     1     -11.552   9.914 -10.042  1.00  0.00    -0.381 OA
ENDBRANCH  22  23
ENDBRANCH  14  22
BRANCH  18  29
ATOM     29  N   UNL     1     -12.735  14.563 -11.979  1.00  0.00    -0.355 N 
ATOM     30  H   UNL     1     -11.793  14.110 -12.110  1.00  0.00     0.163 HD
BRANCH  29  31
ATOM     31  C   UNL     1     -13.554  14.139 -12.868  1.00  0.00     0.102 A 
ATOM     32  C   UNL     1     -13.805  14.769 -14.038  1.00  0.00     0.190 A 
ATOM     33  C   UNL     1     -14.243  12.981 -12.661  1.00  0.00     0.068 A 
ATOM     34  O   UNL     1     -13.310  15.819 -14.452  1.00  0.00    -0.451 OA
ATOM     35  C   UNL     1     -14.679  14.299 -14.938  1.00  0.00     0.168 A 
ATOM     36  C   UNL     1     -15.122  12.517 -13.571  1.00  0.00     0.027 A 
ATOM     37  C   UNL     1     -13.816  16.077 -15.761  1.00  0.00     0.468 C 
ATOM     38  O   UNL     1     -14.756  15.022 -15.930  1.00  0.00    -0.454 OA
ATOM     39  C   UNL     1     -15.352  13.165 -14.721  1.00  0.00     0.052 A 
ATOM     40  Cl  UNL     1     -14.091  12.001 -11.231  1.00  0.00    -0.082 Cl
ENDBRANCH  29  31
ENDBRANCH  18  29
ENDBRANCH   1  11
TORSDOF 8
ENDMDL
MODEL 9
REMARK VINA RESULT:    -8.590      2.659      9.415
REMARK INTER + INTRA:         -14.403
REMARK INTER:                 -12.857
REMARK INTRA:                  -1.546
REMARK UNBOUND:                -1.796
REMARK SMILES CN1CCN(CCOc2cc3c(c(OC4CCOCC4)c2)C(Nc2c(Cl)ccc4c2OCO4)N=CN3)CC1
REMARK SMILES IDX 8 1 7 2 6 3 5 4 2 5 3 6 38 7 4 8 37 9 1 10 9 11 21 12 10 13
REMARK SMILES IDX 13 14 11 15 12 16 36 17 22 18 35 19 34 20 14 22 15 23 16 24
REMARK SMILES IDX 20 25 17 26 19 27 18 28 23 29 24 31 30 32 25 33 31 34 29 35
REMARK SMILES IDX 27 36 32 37 33 38 28 39 26 40
REMARK H PARENT 36 21 23 30
ROOT
ATOM      1  O   UNL     1     -13.183  16.010 -10.840  1.00  0.00    -0.492 OA
ENDROOT
BRANCH   1   2
ATOM      2  C   UNL     1     -13.284  14.891 -11.687  1.00  0.00     0.245 C 
BRANCH   2   3
ATOM      3  C   UNL     1     -13.326  15.283 -13.174  1.00  0.00     0.126 C 
BRANCH   3   4
ATOM      4  N   UNL     1     -14.540  14.927 -13.902  1.00  0.00    -0.297 NA
ATOM      5  N   UNL     1     -16.374  12.899 -14.933  1.00  0.00    -0.304 NA
ATOM      6  C   UNL     1     -15.420  13.573 -15.796  1.00  0.00     0.099 C 
ATOM      7  C   UNL     1     -16.737  13.773 -13.832  1.00  0.00     0.099 C 
ATOM      8  C   UNL     1     -14.187  14.053 -15.016  1.00  0.00     0.100 C 
ATOM      9  C   UNL     1     -15.486  14.221 -13.051  1.00  0.00     0.100 C 
ATOM     10  C   UNL     1     -17.552  12.515 -15.692  1.00  0.00     0.105 C 
ENDBRANCH   3   4
ENDBRANCH   2   3
ENDBRANCH   1   2
BRANCH   1  11
ATOM     11  C   UNL     1     -12.233  15.929  -9.851  1.00  0.00     0.125 A 
ATOM     12  C   UNL     1     -11.392  14.882  -9.761  1.00  0.00     0.093 A 
ATOM     13  C   UNL     1     -12.070  16.881  -8.926  1.00  0.00     0.073 A 
ATOM     14  C   UNL     1     -10.424  14.739  -8.826  1.00  0.00     0.132 A 
ATOM     15  C   UNL     1     -11.129  16.781  -7.976  1.00  0.00     0.054 A 
ATOM     16  C   UNL     1     -10.281  15.719  -7.891  1.00  0.00     0.062 A 
ATOM     17  N   UNL     1     -11.088  17.754  -7.165  1.00  0.00    -0.346 N 
ATOM     18  C   UNL     1      -9.374  15.743  -6.872  1.00  0.00     0.236 C 
ATOM     19  C   UNL     1     -10.216  17.692  -6.260  1.00  0.00     0.193 C 
ATOM     20  N   UNL     1      -9.388  16.754  -6.092  1.00  0.00    -0.246 NA
ATOM     21  H   UNL     1     -11.705  18.518  -7.239  1.00  0.00     0.167 HD
BRANCH  14  22
ATOM     22  O   UNL     1      -9.630  13.608  -8.823  1.00  0.00    -0.490 OA
BRANCH  22  23
ATOM     23  C   UNL     1      -9.765  12.577  -9.771  1.00  0.00     0.178 C 
ATOM     24  C   UNL     1      -8.554  12.435 -10.695  1.00  0.00     0.073 C 
ATOM     25  C   UNL     1      -9.935  11.284  -8.956  1.00  0.00     0.073 C 
ATOM     26  C   UNL     1      -8.585  11.106 -11.442  1.00  0.00     0.164 C 
ATOM     27  C   UNL     1      -9.873  10.049  -9.848  1.00  0.00     0.164 C 
ATOM     28  O   UNL     1      -8.655  10.027 -10.543  1.00  0.00    -0.381 OA
ENDBRANCH  22  23
ENDBRANCH  14  22
BRANCH  18  29
ATOM     29  N   UNL     1      -8.440  14.952  -6.492  1.00  0.00    -0.355 N 
ATOM     30  H   UNL     1      -8.191  14.247  -7.236  1.00  0.00     0.163 HD
BRANCH  29  31
ATOM     31  C   UNL     1      -7.714  14.770  -5.454  1.00  0.00     0.102 A 
ATOM     32  C   UNL     1      -8.142  14.179  -4.315  1.00  0.00     0.190 A 
ATOM     33  C   UNL     1      -6.415  15.186  -5.450  1.00  0.00     0.068 A 
ATOM     34  O   UNL     1      -9.261  13.721  -4.077  1.00  0.00    -0.451 OA
ATOM     35  C   UNL     1      -7.353  14.019  -3.245  1.00  0.00     0.168 A 
ATOM     36  C   UNL     1      -5.629  15.023  -4.368  1.00  0.00     0.027 A 
ATOM     37  C   UNL     1      -9.247  13.137  -2.775  1.00  0.00     0.468 C 
ATOM     38  O   UNL     1      -7.938  13.460  -2.319  1.00  0.00    -0.454 OA
ATOM     39  C   UNL     1      -6.084  14.436  -3.252  1.00  0.00     0.052 A 
ATOM     40  Cl  UNL     1      -5.643  15.976  -6.796  1.00  0.00    -0.082 Cl
ENDBRANCH  29  31
ENDBRANCH  18  29
ENDBRANCH   1  11
TORSDOF 8
ENDMDL
MODEL 10
REMARK VINA RESULT:    -8.483      4.509      7.814
REMARK INTER + INTRA:         -14.246
REMARK INTER:                 -12.250
REMARK INTRA:                  -1.996
REMARK UNBOUND:                -1.796
REMARK SMILES CN1CCN(CCOc2cc3c(c(OC4CCOCC4)c2)C(Nc2c(Cl)ccc4c2OCO4)N=CN3)CC1
REMARK SMILES IDX 8 1 7 2 6 3 5 4 2 5 3 6 38 7 4 8 37 9 1 10 9 11 21 12 10 13
REMARK SMILES IDX 13 14 11 15 12 16 36 17 22 18 35 19 34 20 14 22 15 23 16 24
REMARK SMILES IDX 20 25 17 26 19 27 18 28 23 29 24 31 30 32 25 33 31 34 29 35
REMARK SMILES IDX 27 36 32 37 33 38 28 39 26 40
REMARK H PARENT 36 21 23 30
ROOT
ATOM      1  O   UNL     1     -11.952  10.808  -9.049  1.00  0.00    -0.492 OA
ENDROOT
BRANCH   1   2
ATOM      2  C   UNL     1     -10.800  11.227  -8.357  1.00  0.00     0.245 C 
BRANCH   2   3
ATOM      3  C   UNL     1     -10.337  12.630  -8.784  1.00  0.00     0.126 C 
BRANCH   3   4
ATOM      4  N   UNL     1     -11.379  13.641  -8.923  1.00  0.00    -0.297 NA
ATOM      5  N   UNL     1     -12.180  16.393  -9.498  1.00  0.00    -0.304 NA
ATOM      6  C   UNL     1     -12.114  15.886  -8.139  1.00  0.00     0.099 C 
ATOM      7  C   UNL     1     -12.472  15.301 -10.410  1.00  0.00     0.099 C 
ATOM      8  C   UNL     1     -11.099  14.742  -8.006  1.00  0.00     0.100 C 
ATOM      9  C   UNL     1     -11.427  14.178 -10.275  1.00  0.00     0.100 C 
ATOM     10  C   UNL     1     -13.192  17.430  -9.598  1.00  0.00     0.105 C 
ENDBRANCH   3   4
ENDBRANCH   2   3
ENDBRANCH   1   2
BRANCH   1  11
ATOM     11  C   UNL     1     -11.731  10.127 -10.222  1.00  0.00     0.125 A 
ATOM     12  C   UNL     1     -12.028  10.663 -11.420  1.00  0.00     0.093 A 
ATOM     13  C   UNL     1     -11.198   8.901 -10.255  1.00  0.00     0.073 A 
ATOM     14  C   UNL     1     -11.826  10.060 -12.614  1.00  0.00     0.132 A 
ATOM     15  C   UNL     1     -10.985   8.260 -11.413  1.00  0.00     0.054 A 
ATOM     16  C   UNL     1     -11.287   8.809 -12.623  1.00  0.00     0.062 A 
ATOM     17  N   UNL     1     -10.476   7.105 -11.296  1.00  0.00    -0.346 N 
ATOM     18  C   UNL     1     -11.023   8.046 -13.722  1.00  0.00     0.236 C 
ATOM     19  C   UNL     1     -10.264   6.477 -12.365  1.00  0.00     0.193 C 
ATOM     20  N   UNL     1     -10.510   6.892 -13.531  1.00  0.00    -0.246 NA
ATOM     21  H   UNL     1     -10.259   6.720 -10.416  1.00  0.00     0.167 HD
BRANCH  14  22
ATOM     22  O   UNL     1     -12.188  10.705 -13.782  1.00  0.00    -0.490 OA
BRANCH  22  23
ATOM     23  C   UNL     1     -13.154  11.727 -13.823  1.00  0.00     0.178 C 
ATOM     24  C   UNL     1     -12.629  13.039 -14.408  1.00  0.00     0.073 C 
ATOM     25  C   UNL     1     -14.287  11.192 -14.713  1.00  0.00     0.073 C 
ATOM     26  C   UNL     1     -13.775  13.980 -14.765  1.00  0.00     0.164 C 
ATOM     27  C   UNL     1     -15.309  12.279 -15.029  1.00  0.00     0.164 C 
ATOM     28  O   UNL     1     -14.673  13.361 -15.654  1.00  0.00    -0.381 OA
ENDBRANCH  22  23
ENDBRANCH  14  22
BRANCH  18  29
ATOM     29  N   UNL     1     -11.159   8.225 -14.984  1.00  0.00    -0.355 N 
ATOM     30  H   UNL     1     -12.122   8.575 -15.233  1.00  0.00     0.163 HD
BRANCH  29  31
ATOM     31  C   UNL     1     -10.450   8.098 -16.042  1.00  0.00     0.102 A 
ATOM     32  C   UNL     1      -9.326   8.805 -16.299  1.00  0.00     0.190 A 
ATOM     33  C   UNL     1     -10.816   7.202 -17.003  1.00  0.00     0.068 A 
ATOM     34  O   UNL     1      -8.795   9.663 -15.591  1.00  0.00    -0.451 OA
ATOM     35  C   UNL     1      -8.618   8.650 -17.425  1.00  0.00     0.168 A 
ATOM     36  C   UNL     1     -10.098   7.055 -18.134  1.00  0.00     0.027 A 
ATOM     37  C   UNL     1      -7.594  10.099 -16.226  1.00  0.00     0.468 C 
ATOM     38  O   UNL     1      -7.634   9.388 -17.458  1.00  0.00    -0.454 OA
ATOM     39  C   UNL     1      -8.990   7.773 -18.361  1.00  0.00     0.052 A 
ATOM     40  Cl  UNL     1     -12.224   6.185 -16.898  1.00  0.00    -0.082 Cl
ENDBRANCH  29  31
ENDBRANCH  18  29
ENDBRANCH   1  11
TORSDOF 8
ENDMDL
