MODEL 1
REMARK VINA RESULT:    -6.242      0.000      0.000
REMARK INTER + INTRA:          -7.266
REMARK INTER:                  -6.972
REMARK INTRA:                  -0.294
REMARK UNBOUND:                -0.294
REMARK SMILES O=C(N[C@H]1CN2CCC1CC2)c1cc2cccc(Cl)c2s1
REMARK SMILES IDX 12 1 13 2 14 3 20 4 18 5 17 6 16 7 15 8 21 9 19 10 2 11 3 12
REMARK SMILES IDX 1 13 4 15 9 16 5 17 8 18 10 19 6 20 7 21 11 22
REMARK H PARENT 3 14
ROOT
ATOM      1  C   UNL     1     141.535 141.232  95.835  1.00  0.00     0.093 A 
ATOM      2  C   UNL     1     141.272 142.299  96.625  1.00  0.00     0.034 A 
ATOM      3  C   UNL     1     139.984 142.419  97.245  1.00  0.00    -0.005 A 
ATOM      4  C   UNL     1     139.099 141.330  96.930  1.00  0.00     0.054 A 
ATOM      5  C   UNL     1     137.829 141.309  97.455  1.00  0.00     0.058 A 
ATOM      6  C   UNL     1     137.405 142.346  98.292  1.00  0.00     0.022 A 
ATOM      7  C   UNL     1     138.273 143.409  98.597  1.00  0.00     0.002 A 
ATOM      8  C   UNL     1     139.562 143.432  98.065  1.00  0.00     0.010 A 
ATOM      9  S   UNL     1     140.087 140.266  95.836  1.00  0.00    -0.128 S 
ATOM     10  Cl  UNL     1     136.724 139.965  97.070  1.00  0.00    -0.083 Cl
ENDROOT
BRANCH   1  11
ATOM     11  C   UNL     1     142.854 140.961  95.103  1.00  0.00     0.261 C 
ATOM     12  N   UNL     1     142.857 140.323  93.801  1.00  0.00    -0.347 N 
ATOM     13  O   UNL     1     143.878 141.273  95.608  1.00  0.00    -0.268 OA
ATOM     14  H   UNL     1     142.010 140.059  93.376  1.00  0.00     0.164 HD
BRANCH  12  15
ATOM     15  C   UNL     1     144.145 140.073  93.116  1.00  0.00     0.099 C 
ATOM     16  C   UNL     1     143.985 140.237  91.674  1.00  0.00     0.015 C 
ATOM     17  C   UNL     1     144.613 138.630  93.387  1.00  0.00     0.109 C 
ATOM     18  C   UNL     1     145.239 139.942  91.038  1.00  0.00     0.021 C 
ATOM     19  C   UNL     1     142.994 139.269  91.209  1.00  0.00     0.021 C 
ATOM     20  N   UNL     1     144.775 137.917  92.196  1.00  0.00    -0.301 NA
ATOM     21  C   UNL     1     145.685 138.551  91.378  1.00  0.00     0.085 C 
ATOM     22  C   UNL     1     143.531 137.822  91.526  1.00  0.00     0.085 C 
ENDBRANCH  12  15
ENDBRANCH   1  11
TORSDOF 2
ENDMDL
MODEL 2
REMARK VINA RESULT:    -5.832      5.714      6.701
REMARK INTER + INTRA:          -6.808
REMARK INTER:                  -6.494
REMARK INTRA:                  -0.314
REMARK UNBOUND:                -0.294
REMARK SMILES O=C(N[C@H]1CN2CCC1CC2)c1cc2cccc(Cl)c2s1
REMARK SMILES IDX 12 1 13 2 14 3 20 4 18 5 17 6 16 7 15 8 21 9 19 10 2 11 3 12
REMARK SMILES IDX 1 13 4 15 9 16 5 17 8 18 10 19 6 20 7 21 11 22
REMARK H PARENT 3 14
ROOT
ATOM      1  C   UNL     1     145.405 142.679  94.438  1.00  0.00     0.093 A 
ATOM      2  C   UNL     1     144.348 142.899  95.254  1.00  0.00     0.034 A 
ATOM      3  C   UNL     1     143.290 141.931  95.315  1.00  0.00    -0.005 A 
ATOM      4  C   UNL     1     143.508 140.796  94.458  1.00  0.00     0.054 A 
ATOM      5  C   UNL     1     142.577 139.787  94.414  1.00  0.00     0.058 A 
ATOM      6  C   UNL     1     141.424 139.868  95.201  1.00  0.00     0.022 A 
ATOM      7  C   UNL     1     141.214 140.979  96.036  1.00  0.00     0.002 A 
ATOM      8  C   UNL     1     142.158 142.005  96.083  1.00  0.00     0.010 A 
ATOM      9  S   UNL     1     145.104 141.150  93.663  1.00  0.00    -0.128 S 
ATOM     10  Cl  UNL     1     142.837 138.377  93.355  1.00  0.00    -0.083 Cl
ENDROOT
BRANCH   1  11
ATOM     11  C   UNL     1     146.608 143.611  94.259  1.00  0.00     0.261 C 
ATOM     12  N   UNL     1     147.897 143.269  94.829  1.00  0.00    -0.347 N 
ATOM     13  O   UNL     1     146.482 144.620  93.652  1.00  0.00    -0.268 OA
ATOM     14  H   UNL     1     148.009 142.434  95.337  1.00  0.00     0.164 HD
BRANCH  12  15
ATOM     15  C   UNL     1     149.043 144.188  94.641  1.00  0.00     0.099 C 
ATOM     16  C   UNL     1     150.188 143.457  94.107  1.00  0.00     0.015 C 
ATOM     17  C   UNL     1     149.452 144.802  95.995  1.00  0.00     0.109 C 
ATOM     18  C   UNL     1     151.293 144.365  93.981  1.00  0.00     0.021 C 
ATOM     19  C   UNL     1     150.555 142.416  95.064  1.00  0.00     0.021 C 
ATOM     20  N   UNL     1     150.784 144.512  96.300  1.00  0.00    -0.301 NA
ATOM     21  C   UNL     1     151.617 144.984  95.309  1.00  0.00     0.085 C 
ATOM     22  C   UNL     1     150.951 143.110  96.422  1.00  0.00     0.085 C 
ENDBRANCH  12  15
ENDBRANCH   1  11
TORSDOF 2
ENDMDL
MODEL 3
REMARK VINA RESULT:    -5.710      5.897      7.472
REMARK INTER + INTRA:          -6.671
REMARK INTER:                  -6.353
REMARK INTRA:                  -0.318
REMARK UNBOUND:                -0.294
REMARK SMILES O=C(N[C@H]1CN2CCC1CC2)c1cc2cccc(Cl)c2s1
REMARK SMILES IDX 12 1 13 2 14 3 20 4 18 5 17 6 16 7 15 8 21 9 19 10 2 11 3 12
REMARK SMILES IDX 1 13 4 15 9 16 5 17 8 18 10 19 6 20 7 21 11 22
REMARK H PARENT 3 14
ROOT
ATOM      1  C   UNL     1     145.215 142.855  94.599  1.00  0.00     0.093 A 
ATOM      2  C   UNL     1     144.109 142.873  95.378  1.00  0.00     0.034 A 
ATOM      3  C   UNL     1     143.184 141.778  95.316  1.00  0.00    -0.005 A 
ATOM      4  C   UNL     1     143.579 140.753  94.387  1.00  0.00     0.054 A 
ATOM      5  C   UNL     1     142.789 139.641  94.222  1.00  0.00     0.058 A 
ATOM      6  C   UNL     1     141.607 139.512  94.958  1.00  0.00     0.022 A 
ATOM      7  C   UNL     1     141.223 140.515  95.864  1.00  0.00     0.002 A 
ATOM      8  C   UNL     1     142.024 141.646  96.033  1.00  0.00     0.010 A 
ATOM      9  S   UNL     1     145.144 141.368  93.696  1.00  0.00    -0.128 S 
ATOM     10  Cl  UNL     1     143.268 138.365  93.073  1.00  0.00    -0.083 Cl
ENDROOT
BRANCH   1  11
ATOM     11  C   UNL     1     146.293 143.943  94.547  1.00  0.00     0.261 C 
ATOM     12  N   UNL     1     146.699 144.637  95.754  1.00  0.00    -0.347 N 
ATOM     13  O   UNL     1     146.796 144.221  93.511  1.00  0.00    -0.268 OA
ATOM     14  H   UNL     1     146.284 144.414  96.618  1.00  0.00     0.164 HD
BRANCH  12  15
ATOM     15  C   UNL     1     147.743 145.684  95.676  1.00  0.00     0.099 C 
ATOM     16  C   UNL     1     148.605 145.620  96.853  1.00  0.00     0.015 C 
ATOM     17  C   UNL     1     147.086 147.079  95.636  1.00  0.00     0.109 C 
ATOM     18  C   UNL     1     149.574 146.676  96.767  1.00  0.00     0.021 C 
ATOM     19  C   UNL     1     147.781 145.845  98.038  1.00  0.00     0.021 C 
ATOM     20  N   UNL     1     147.520 147.873  96.700  1.00  0.00    -0.301 NA
ATOM     21  C   UNL     1     148.891 148.008  96.669  1.00  0.00     0.085 C 
ATOM     22  C   UNL     1     147.136 147.278  97.927  1.00  0.00     0.085 C 
ENDBRANCH  12  15
ENDBRANCH   1  11
TORSDOF 2
ENDMDL
MODEL 4
REMARK VINA RESULT:    -5.695      5.833      9.342
REMARK INTER + INTRA:          -6.655
REMARK INTER:                  -6.359
REMARK INTRA:                  -0.296
REMARK UNBOUND:                -0.294
REMARK SMILES O=C(N[C@H]1CN2CCC1CC2)c1cc2cccc(Cl)c2s1
REMARK SMILES IDX 12 1 13 2 14 3 20 4 18 5 17 6 16 7 15 8 21 9 19 10 2 11 3 12
REMARK SMILES IDX 1 13 4 15 9 16 5 17 8 18 10 19 6 20 7 21 11 22
REMARK H PARENT 3 14
ROOT
ATOM      1  C   UNL     1     141.085 139.511  87.488  1.00  0.00     0.093 A 
ATOM      2  C   UNL     1     141.797 139.449  86.340  1.00  0.00     0.034 A 
ATOM      3  C   UNL     1     141.256 138.747  85.211  1.00  0.00    -0.005 A 
ATOM      4  C   UNL     1     139.960 138.177  85.465  1.00  0.00     0.054 A 
ATOM      5  C   UNL     1     139.318 137.476  84.473  1.00  0.00     0.058 A 
ATOM      6  C   UNL     1     139.927 137.322  83.223  1.00  0.00     0.022 A 
ATOM      7  C   UNL     1     141.194 137.880  82.979  1.00  0.00     0.002 A 
ATOM      8  C   UNL     1     141.848 138.592  83.985  1.00  0.00     0.010 A 
ATOM      9  S   UNL     1     139.608 138.640  87.187  1.00  0.00    -0.128 S 
ATOM     10  Cl  UNL     1     137.712 136.764  84.777  1.00  0.00    -0.083 Cl
ENDROOT
BRANCH   1  11
ATOM     11  C   UNL     1     141.522 140.217  88.777  1.00  0.00     0.261 C 
ATOM     12  N   UNL     1     142.589 139.670  89.592  1.00  0.00    -0.347 N 
ATOM     13  O   UNL     1     140.980 141.216  89.111  1.00  0.00    -0.268 OA
ATOM     14  H   UNL     1     143.043 138.839  89.323  1.00  0.00     0.164 HD
BRANCH  12  15
ATOM     15  C   UNL     1     142.991 140.371  90.832  1.00  0.00     0.099 C 
ATOM     16  C   UNL     1     144.423 140.198  91.063  1.00  0.00     0.015 C 
ATOM     17  C   UNL     1     142.234 139.782  92.038  1.00  0.00     0.109 C 
ATOM     18  C   UNL     1     144.770 140.850  92.295  1.00  0.00     0.021 C 
ATOM     19  C   UNL     1     144.696 138.770  91.205  1.00  0.00     0.021 C 
ATOM     20  N   UNL     1     143.120 139.288  93.000  1.00  0.00    -0.301 NA
ATOM     21  C   UNL     1     143.966 140.287  93.430  1.00  0.00     0.085 C 
ATOM     22  C   UNL     1     143.885 138.233  92.446  1.00  0.00     0.085 C 
ENDBRANCH  12  15
ENDBRANCH   1  11
TORSDOF 2
ENDMDL
MODEL 5
REMARK VINA RESULT:    -5.642      5.621      7.235
REMARK INTER + INTRA:          -6.596
REMARK INTER:                  -6.283
REMARK INTRA:                  -0.312
REMARK UNBOUND:                -0.294
REMARK SMILES O=C(N[C@H]1CN2CCC1CC2)c1cc2cccc(Cl)c2s1
REMARK SMILES IDX 12 1 13 2 14 3 20 4 18 5 17 6 16 7 15 8 21 9 19 10 2 11 3 12
REMARK SMILES IDX 1 13 4 15 9 16 5 17 8 18 10 19 6 20 7 21 11 22
REMARK H PARENT 3 14
ROOT
ATOM      1  C   UNL     1     145.293 142.994  94.737  1.00  0.00     0.093 A 
ATOM      2  C   UNL     1     145.580 141.956  93.918  1.00  0.00     0.034 A 
ATOM      3  C   UNL     1     144.640 140.880  93.788  1.00  0.00    -0.005 A 
ATOM      4  C   UNL     1     143.456 141.060  94.585  1.00  0.00     0.054 A 
ATOM      5  C   UNL     1     142.466 140.107  94.560  1.00  0.00     0.058 A 
ATOM      6  C   UNL     1     142.615 138.970  93.760  1.00  0.00     0.022 A 
ATOM      7  C   UNL     1     143.773 138.797  92.982  1.00  0.00     0.002 A 
ATOM      8  C   UNL     1     144.779 139.763  93.007  1.00  0.00     0.010 A 
ATOM      9  S   UNL     1     143.732 142.649  95.424  1.00  0.00    -0.128 S 
ATOM     10  Cl  UNL     1     140.996 140.319  95.546  1.00  0.00    -0.083 Cl
ENDROOT
BRANCH   1  11
ATOM     11  C   UNL     1     146.189 144.213  94.986  1.00  0.00     0.261 C 
ATOM     12  N   UNL     1     147.176 144.616  94.004  1.00  0.00    -0.347 N 
ATOM     13  O   UNL     1     146.073 144.829  95.991  1.00  0.00    -0.268 OA
ATOM     14  H   UNL     1     147.280 144.108  93.167  1.00  0.00     0.164 HD
BRANCH  12  15
ATOM     15  C   UNL     1     148.028 145.797  94.270  1.00  0.00     0.099 C 
ATOM     16  C   UNL     1     148.302 146.507  93.024  1.00  0.00     0.015 C 
ATOM     17  C   UNL     1     149.374 145.349  94.874  1.00  0.00     0.109 C 
ATOM     18  C   UNL     1     149.166 147.618  93.310  1.00  0.00     0.021 C 
ATOM     19  C   UNL     1     149.004 145.598  92.121  1.00  0.00     0.021 C 
ATOM     20  N   UNL     1     150.448 145.770  94.085  1.00  0.00    -0.301 NA
ATOM     21  C   UNL     1     150.436 147.142  93.951  1.00  0.00     0.085 C 
ATOM     22  C   UNL     1     150.360 145.174  92.803  1.00  0.00     0.085 C 
ENDBRANCH  12  15
ENDBRANCH   1  11
TORSDOF 2
ENDMDL
MODEL 6
REMARK VINA RESULT:    -5.561      5.597      6.944
REMARK INTER + INTRA:          -6.505
REMARK INTER:                  -6.183
REMARK INTRA:                  -0.322
REMARK UNBOUND:                -0.294
REMARK SMILES O=C(N[C@H]1CN2CCC1CC2)c1cc2cccc(Cl)c2s1
REMARK SMILES IDX 12 1 13 2 14 3 20 4 18 5 17 6 16 7 15 8 21 9 19 10 2 11 3 12
REMARK SMILES IDX 1 13 4 15 9 16 5 17 8 18 10 19 6 20 7 21 11 22
REMARK H PARENT 3 14
ROOT
ATOM      1  C   UNL     1     145.221 143.032  94.733  1.00  0.00     0.093 A 
ATOM      2  C   UNL     1     145.218 141.870  94.041  1.00  0.00     0.034 A 
ATOM      3  C   UNL     1     144.146 140.936  94.234  1.00  0.00    -0.005 A 
ATOM      4  C   UNL     1     143.165 141.387  95.185  1.00  0.00     0.054 A 
ATOM      5  C   UNL     1     142.079 140.595  95.470  1.00  0.00     0.058 A 
ATOM      6  C   UNL     1     141.933 139.358  94.835  1.00  0.00     0.022 A 
ATOM      7  C   UNL     1     142.893 138.921  93.907  1.00  0.00     0.002 A 
ATOM      8  C   UNL     1     143.997 139.723  93.616  1.00  0.00     0.010 A 
ATOM      9  S   UNL     1     143.787 143.010  95.719  1.00  0.00    -0.128 S 
ATOM     10  Cl  UNL     1     140.858 141.144  96.648  1.00  0.00    -0.083 Cl
ENDROOT
BRANCH   1  11
ATOM     11  C   UNL     1     146.290 144.127  94.642  1.00  0.00     0.261 C 
ATOM     12  N   UNL     1     147.694 143.802  94.800  1.00  0.00    -0.347 N 
ATOM     13  O   UNL     1     145.965 145.248  94.444  1.00  0.00    -0.268 OA
ATOM     14  H   UNL     1     147.973 142.873  94.968  1.00  0.00     0.164 HD
BRANCH  12  15
ATOM     15  C   UNL     1     148.706 144.879  94.708  1.00  0.00     0.099 C 
ATOM     16  C   UNL     1     149.728 144.522  93.728  1.00  0.00     0.015 C 
ATOM     17  C   UNL     1     149.395 145.071  96.074  1.00  0.00     0.109 C 
ATOM     18  C   UNL     1     150.716 145.564  93.697  1.00  0.00     0.021 C 
ATOM     19  C   UNL     1     150.375 143.288  94.167  1.00  0.00     0.021 C 
ATOM     20  N   UNL     1     150.776 144.882  95.975  1.00  0.00    -0.301 NA
ATOM     21  C   UNL     1     151.316 145.758  95.059  1.00  0.00     0.085 C 
ATOM     22  C   UNL     1     151.047 143.553  95.568  1.00  0.00     0.085 C 
ENDBRANCH  12  15
ENDBRANCH   1  11
TORSDOF 2
ENDMDL
MODEL 7
REMARK VINA RESULT:    -5.541      4.200      6.224
REMARK INTER + INTRA:          -6.482
REMARK INTER:                  -6.209
REMARK INTRA:                  -0.273
REMARK UNBOUND:                -0.294
REMARK SMILES O=C(N[C@H]1CN2CCC1CC2)c1cc2cccc(Cl)c2s1
REMARK SMILES IDX 12 1 13 2 14 3 20 4 18 5 17 6 16 7 15 8 21 9 19 10 2 11 3 12
REMARK SMILES IDX 1 13 4 15 9 16 5 17 8 18 10 19 6 20 7 21 11 22
REMARK H PARENT 3 14
ROOT
ATOM      1  C   UNL     1     145.510 139.353  92.655  1.00  0.00     0.093 A 
ATOM      2  C   UNL     1     144.329 138.789  93.001  1.00  0.00     0.034 A 
ATOM      3  C   UNL     1     143.475 139.461  93.938  1.00  0.00    -0.005 A 
ATOM      4  C   UNL     1     144.015 140.709  94.405  1.00  0.00     0.054 A 
ATOM      5  C   UNL     1     143.305 141.464  95.307  1.00  0.00     0.058 A 
ATOM      6  C   UNL     1     142.062 141.015  95.765  1.00  0.00     0.022 A 
ATOM      7  C   UNL     1     141.537 139.794  95.306  1.00  0.00     0.002 A 
ATOM      8  C   UNL     1     142.257 139.026  94.390  1.00  0.00     0.010 A 
ATOM      9  S   UNL     1     145.609 140.847  93.542  1.00  0.00    -0.128 S 
ATOM     10  Cl  UNL     1     143.966 143.012  95.894  1.00  0.00    -0.083 Cl
ENDROOT
BRANCH   1  11
ATOM     11  C   UNL     1     146.531 138.764  91.674  1.00  0.00     0.261 C 
ATOM     12  N   UNL     1     147.810 138.273  92.148  1.00  0.00    -0.347 N 
ATOM     13  O   UNL     1     146.272 138.714  90.519  1.00  0.00    -0.268 OA
ATOM     14  H   UNL     1     148.034 138.314  93.105  1.00  0.00     0.164 HD
BRANCH  12  15
ATOM     15  C   UNL     1     148.778 137.710  91.179  1.00  0.00     0.099 C 
ATOM     16  C   UNL     1     149.599 136.692  91.827  1.00  0.00     0.015 C 
ATOM     17  C   UNL     1     149.710 138.822  90.661  1.00  0.00     0.109 C 
ATOM     18  C   UNL     1     150.555 136.200  90.875  1.00  0.00     0.021 C 
ATOM     19  C   UNL     1     150.326 137.320  92.928  1.00  0.00     0.021 C 
ATOM     20  N   UNL     1     151.049 138.526  90.929  1.00  0.00    -0.301 NA
ATOM     21  C   UNL     1     151.400 137.325  90.352  1.00  0.00     0.085 C 
ATOM     22  C   UNL     1     151.249 138.449  92.329  1.00  0.00     0.085 C 
ENDBRANCH  12  15
ENDBRANCH   1  11
TORSDOF 2
ENDMDL
MODEL 8
REMARK VINA RESULT:    -5.402      5.920      7.037
REMARK INTER + INTRA:          -6.327
REMARK INTER:                  -6.054
REMARK INTRA:                  -0.273
REMARK UNBOUND:                -0.294
REMARK SMILES O=C(N[C@H]1CN2CCC1CC2)c1cc2cccc(Cl)c2s1
REMARK SMILES IDX 12 1 13 2 14 3 20 4 18 5 17 6 16 7 15 8 21 9 19 10 2 11 3 12
REMARK SMILES IDX 1 13 4 15 9 16 5 17 8 18 10 19 6 20 7 21 11 22
REMARK H PARENT 3 14
ROOT
ATOM      1  C   UNL     1     145.294 143.260  94.695  1.00  0.00     0.093 A 
ATOM      2  C   UNL     1     144.135 143.096  95.375  1.00  0.00     0.034 A 
ATOM      3  C   UNL     1     143.399 141.873  95.230  1.00  0.00    -0.005 A 
ATOM      4  C   UNL     1     144.025 140.935  94.337  1.00  0.00     0.054 A 
ATOM      5  C   UNL     1     143.433 139.718  94.102  1.00  0.00     0.058 A 
ATOM      6  C   UNL     1     142.226 139.398  94.731  1.00  0.00     0.022 A 
ATOM      7  C   UNL     1     141.616 140.317  95.602  1.00  0.00     0.002 A 
ATOM      8  C   UNL     1     142.216 141.554  95.842  1.00  0.00     0.010 A 
ATOM      9  S   UNL     1     145.531 141.794  93.787  1.00  0.00    -0.128 S 
ATOM     10  Cl  UNL     1     144.201 138.549  92.996  1.00  0.00    -0.083 Cl
ENDROOT
BRANCH   1  11
ATOM     11  C   UNL     1     146.192 144.501  94.740  1.00  0.00     0.261 C 
ATOM     12  N   UNL     1     147.261 144.673  93.776  1.00  0.00    -0.347 N 
ATOM     13  O   UNL     1     146.012 145.324  95.573  1.00  0.00    -0.268 OA
ATOM     14  H   UNL     1     147.418 143.993  93.083  1.00  0.00     0.164 HD
BRANCH  12  15
ATOM     15  C   UNL     1     148.114 145.882  93.842  1.00  0.00     0.099 C 
ATOM     16  C   UNL     1     148.593 146.230  92.508  1.00  0.00     0.015 C 
ATOM     17  C   UNL     1     149.339 145.612  94.738  1.00  0.00     0.109 C 
ATOM     18  C   UNL     1     149.452 147.376  92.614  1.00  0.00     0.021 C 
ATOM     19  C   UNL     1     149.379 145.111  91.995  1.00  0.00     0.021 C 
ATOM     20  N   UNL     1     150.532 145.804  94.036  1.00  0.00    -0.301 NA
ATOM     21  C   UNL     1     150.595 147.089  93.542  1.00  0.00     0.085 C 
ATOM     22  C   UNL     1     150.604 144.885  92.960  1.00  0.00     0.085 C 
ENDBRANCH  12  15
ENDBRANCH   1  11
TORSDOF 2
ENDMDL
MODEL 9
REMARK VINA RESULT:    -5.386      6.256     10.627
REMARK INTER + INTRA:          -6.309
REMARK INTER:                  -6.026
REMARK INTRA:                  -0.284
REMARK UNBOUND:                -0.294
REMARK SMILES O=C(N[C@H]1CN2CCC1CC2)c1cc2cccc(Cl)c2s1
REMARK SMILES IDX 12 1 13 2 14 3 20 4 18 5 17 6 16 7 15 8 21 9 19 10 2 11 3 12
REMARK SMILES IDX 1 13 4 15 9 16 5 17 8 18 10 19 6 20 7 21 11 22
REMARK H PARENT 3 14
ROOT
ATOM      1  C   UNL     1     149.154 137.873  91.594  1.00  0.00     0.093 A 
ATOM      2  C   UNL     1     149.850 136.827  91.092  1.00  0.00     0.034 A 
ATOM      3  C   UNL     1     151.188 136.583  91.551  1.00  0.00    -0.005 A 
ATOM      4  C   UNL     1     151.631 137.532  92.537  1.00  0.00     0.054 A 
ATOM      5  C   UNL     1     152.894 137.423  93.068  1.00  0.00     0.058 A 
ATOM      6  C   UNL     1     153.738 136.390  92.649  1.00  0.00     0.022 A 
ATOM      7  C   UNL     1     153.302 135.465  91.685  1.00  0.00     0.002 A 
ATOM      8  C   UNL     1     152.020 135.575  91.144  1.00  0.00     0.010 A 
ATOM      9  S   UNL     1     150.211 138.648  92.740  1.00  0.00    -0.128 S 
ATOM     10  Cl  UNL     1     153.454 138.594  94.290  1.00  0.00    -0.083 Cl
ENDROOT
BRANCH   1  11
ATOM     11  C   UNL     1     147.724 138.266  91.208  1.00  0.00     0.261 C 
ATOM     12  N   UNL     1     146.673 138.297  92.207  1.00  0.00    -0.347 N 
ATOM     13  O   UNL     1     147.476 138.545  90.084  1.00  0.00    -0.268 OA
ATOM     14  H   UNL     1     146.870 138.064  93.142  1.00  0.00     0.164 HD
BRANCH  12  15
ATOM     15  C   UNL     1     145.299 138.680  91.807  1.00  0.00     0.099 C 
ATOM     16  C   UNL     1     145.112 140.118  91.979  1.00  0.00     0.015 C 
ATOM     17  C   UNL     1     144.271 137.951  92.693  1.00  0.00     0.109 C 
ATOM     18  C   UNL     1     143.759 140.448  91.627  1.00  0.00     0.021 C 
ATOM     19  C   UNL     1     145.313 140.442  93.389  1.00  0.00     0.021 C 
ATOM     20  N   UNL     1     143.451 138.858  93.369  1.00  0.00    -0.301 NA
ATOM     21  C   UNL     1     142.793 139.671  92.472  1.00  0.00     0.085 C 
ATOM     22  C   UNL     1     144.238 139.657  94.234  1.00  0.00     0.085 C 
ENDBRANCH  12  15
ENDBRANCH   1  11
TORSDOF 2
ENDMDL
MODEL 10
REMARK VINA RESULT:    -5.313      5.215      7.644
REMARK INTER + INTRA:          -6.228
REMARK INTER:                  -5.907
REMARK INTRA:                  -0.320
REMARK UNBOUND:                -0.294
REMARK SMILES O=C(N[C@H]1CN2CCC1CC2)c1cc2cccc(Cl)c2s1
REMARK SMILES IDX 12 1 13 2 14 3 20 4 18 5 17 6 16 7 15 8 21 9 19 10 2 11 3 12
REMARK SMILES IDX 1 13 4 15 9 16 5 17 8 18 10 19 6 20 7 21 11 22
REMARK H PARENT 3 14
ROOT
ATOM      1  C   UNL     1     146.500 138.611  91.478  1.00  0.00     0.093 A 
ATOM      2  C   UNL     1     145.698 138.988  90.456  1.00  0.00     0.034 A 
ATOM      3  C   UNL     1     144.360 139.427  90.734  1.00  0.00    -0.005 A 
ATOM      4  C   UNL     1     144.036 139.409  92.135  1.00  0.00     0.054 A 
ATOM      5  C   UNL     1     142.788 139.805  92.551  1.00  0.00     0.058 A 
ATOM      6  C   UNL     1     141.841 140.224  91.611  1.00  0.00     0.022 A 
ATOM      7  C   UNL     1     142.161 140.239  90.243  1.00  0.00     0.002 A 
ATOM      8  C   UNL     1     143.427 139.837  89.818  1.00  0.00     0.010 A 
ATOM      9  S   UNL     1     145.556 138.804  92.928  1.00  0.00    -0.128 S 
ATOM     10  Cl  UNL     1     142.375 139.785  94.286  1.00  0.00    -0.083 Cl
ENDROOT
BRANCH   1  11
ATOM     11  C   UNL     1     147.946 138.118  91.348  1.00  0.00     0.261 C 
ATOM     12  N   UNL     1     148.656 138.242  90.090  1.00  0.00    -0.347 N 
ATOM     13  O   UNL     1     148.484 137.631  92.283  1.00  0.00    -0.268 OA
ATOM     14  H   UNL     1     148.215 138.643  89.308  1.00  0.00     0.164 HD
BRANCH  12  15
ATOM     15  C   UNL     1     150.052 137.757  89.992  1.00  0.00     0.099 C 
ATOM     16  C   UNL     1     150.837 138.659  89.154  1.00  0.00     0.015 C 
ATOM     17  C   UNL     1     150.078 136.357  89.348  1.00  0.00     0.109 C 
ATOM     18  C   UNL     1     152.170 138.137  89.043  1.00  0.00     0.021 C 
ATOM     19  C   UNL     1     150.239 138.685  87.822  1.00  0.00     0.021 C 
ATOM     20  N   UNL     1     150.855 136.348  88.187  1.00  0.00    -0.301 NA
ATOM     21  C   UNL     1     152.143 136.751  88.468  1.00  0.00     0.085 C 
ATOM     22  C   UNL     1     150.290 137.226  87.229  1.00  0.00     0.085 C 
ENDBRANCH  12  15
ENDBRANCH   1  11
TORSDOF 2
ENDMDL
MODEL 11
REMARK VINA RESULT:    -5.290     10.989     12.053
REMARK INTER + INTRA:          -6.202
REMARK INTER:                  -5.957
REMARK INTRA:                  -0.245
REMARK UNBOUND:                -0.294
REMARK SMILES O=C(N[C@H]1CN2CCC1CC2)c1cc2cccc(Cl)c2s1
REMARK SMILES IDX 12 1 13 2 14 3 20 4 18 5 17 6 16 7 15 8 21 9 19 10 2 11 3 12
REMARK SMILES IDX 1 13 4 15 9 16 5 17 8 18 10 19 6 20 7 21 11 22
REMARK H PARENT 3 14
ROOT
ATOM      1  C   UNL     1     151.224 136.711  89.678  1.00  0.00     0.093 A 
ATOM      2  C   UNL     1     152.220 136.192  90.433  1.00  0.00     0.034 A 
ATOM      3  C   UNL     1     152.485 136.747  91.730  1.00  0.00    -0.005 A 
ATOM      4  C   UNL     1     151.608 137.835  92.072  1.00  0.00     0.054 A 
ATOM      5  C   UNL     1     151.745 138.464  93.286  1.00  0.00     0.058 A 
ATOM      6  C   UNL     1     152.733 138.043  94.181  1.00  0.00     0.022 A 
ATOM      7  C   UNL     1     153.588 136.980  93.843  1.00  0.00     0.002 A 
ATOM      8  C   UNL     1     153.452 136.340  92.611  1.00  0.00     0.010 A 
ATOM      9  S   UNL     1     150.527 137.999  90.619  1.00  0.00    -0.128 S 
ATOM     10  Cl  UNL     1     150.664 139.814  93.719  1.00  0.00    -0.083 Cl
ENDROOT
BRANCH   1  11
ATOM     11  C   UNL     1     150.819 136.235  88.279  1.00  0.00     0.261 C 
ATOM     12  N   UNL     1     149.513 135.650  88.048  1.00  0.00    -0.347 N 
ATOM     13  O   UNL     1     151.582 136.344  87.379  1.00  0.00    -0.268 OA
ATOM     14  H   UNL     1     148.874 135.553  88.791  1.00  0.00     0.164 HD
BRANCH  12  15
ATOM     15  C   UNL     1     149.147 135.198  86.686  1.00  0.00     0.099 C 
ATOM     16  C   UNL     1     148.604 136.314  85.918  1.00  0.00     0.015 C 
ATOM     17  C   UNL     1     148.068 134.100  86.769  1.00  0.00     0.109 C 
ATOM     18  C   UNL     1     148.218 135.832  84.621  1.00  0.00     0.021 C 
ATOM     19  C   UNL     1     147.410 136.805  86.602  1.00  0.00     0.021 C 
ATOM     20  N   UNL     1     146.915 134.471  86.073  1.00  0.00    -0.301 NA
ATOM     21  C   UNL     1     147.213 134.726  84.752  1.00  0.00     0.085 C 
ATOM     22  C   UNL     1     146.357 135.633  86.659  1.00  0.00     0.085 C 
ENDBRANCH  12  15
ENDBRANCH   1  11
TORSDOF 2
ENDMDL
MODEL 12
REMARK VINA RESULT:    -5.191      6.019      7.166
REMARK INTER + INTRA:          -6.091
REMARK INTER:                  -5.811
REMARK INTRA:                  -0.280
REMARK UNBOUND:                -0.294
REMARK SMILES O=C(N[C@H]1CN2CCC1CC2)c1cc2cccc(Cl)c2s1
REMARK SMILES IDX 12 1 13 2 14 3 20 4 18 5 17 6 16 7 15 8 21 9 19 10 2 11 3 12
REMARK SMILES IDX 1 13 4 15 9 16 5 17 8 18 10 19 6 20 7 21 11 22
REMARK H PARENT 3 14
ROOT
ATOM      1  C   UNL     1     145.690 142.790  94.562  1.00  0.00     0.093 A 
ATOM      2  C   UNL     1     144.634 143.131  95.335  1.00  0.00     0.034 A 
ATOM      3  C   UNL     1     143.483 142.275  95.377  1.00  0.00    -0.005 A 
ATOM      4  C   UNL     1     143.615 141.107  94.549  1.00  0.00     0.054 A 
ATOM      5  C   UNL     1     142.590 140.194  94.490  1.00  0.00     0.058 A 
ATOM      6  C   UNL     1     141.425 140.406  95.234  1.00  0.00     0.022 A 
ATOM      7  C   UNL     1     141.300 141.550  96.042  1.00  0.00     0.002 A 
ATOM      8  C   UNL     1     142.340 142.478  96.103  1.00  0.00     0.010 A 
ATOM      9  S   UNL     1     145.264 141.282  93.803  1.00  0.00    -0.128 S 
ATOM     10  Cl  UNL     1     142.742 138.742  93.466  1.00  0.00    -0.083 Cl
ENDROOT
BRANCH   1  11
ATOM     11  C   UNL     1     146.986 143.594  94.408  1.00  0.00     0.261 C 
ATOM     12  N   UNL     1     146.963 144.929  93.842  1.00  0.00    -0.347 N 
ATOM     13  O   UNL     1     148.015 143.118  94.752  1.00  0.00    -0.268 OA
ATOM     14  H   UNL     1     146.113 145.330  93.551  1.00  0.00     0.164 HD
BRANCH  12  15
ATOM     15  C   UNL     1     148.230 145.683  93.705  1.00  0.00     0.099 C 
ATOM     16  C   UNL     1     148.531 146.385  94.949  1.00  0.00     0.015 C 
ATOM     17  C   UNL     1     148.099 146.730  92.581  1.00  0.00     0.109 C 
ATOM     18  C   UNL     1     149.738 147.142  94.766  1.00  0.00     0.021 C 
ATOM     19  C   UNL     1     147.441 147.317  95.226  1.00  0.00     0.021 C 
ATOM     20  N   UNL     1     148.331 148.021  93.062  1.00  0.00    -0.301 NA
ATOM     21  C   UNL     1     149.586 148.104  93.626  1.00  0.00     0.085 C 
ATOM     22  C   UNL     1     147.358 148.349  94.038  1.00  0.00     0.085 C 
ENDBRANCH  12  15
ENDBRANCH   1  11
TORSDOF 2
ENDMDL
MODEL 13
REMARK VINA RESULT:    -5.169      4.677      5.464
REMARK INTER + INTRA:          -6.067
REMARK INTER:                  -5.736
REMARK INTRA:                  -0.330
REMARK UNBOUND:                -0.294
REMARK SMILES O=C(N[C@H]1CN2CCC1CC2)c1cc2cccc(Cl)c2s1
REMARK SMILES IDX 12 1 13 2 14 3 20 4 18 5 17 6 16 7 15 8 21 9 19 10 2 11 3 12
REMARK SMILES IDX 1 13 4 15 9 16 5 17 8 18 10 19 6 20 7 21 11 22
REMARK H PARENT 3 14
ROOT
ATOM      1  C   UNL     1     144.000 142.504  95.290  1.00  0.00     0.093 A 
ATOM      2  C   UNL     1     143.589 143.265  96.331  1.00  0.00     0.034 A 
ATOM      3  C   UNL     1     142.331 142.979  96.960  1.00  0.00    -0.005 A 
ATOM      4  C   UNL     1     141.642 141.863  96.370  1.00  0.00     0.054 A 
ATOM      5  C   UNL     1     140.423 141.473  96.871  1.00  0.00     0.058 A 
ATOM      6  C   UNL     1     139.861 142.162  97.950  1.00  0.00     0.022 A 
ATOM      7  C   UNL     1     140.537 143.253  98.523  1.00  0.00     0.002 A 
ATOM      8  C   UNL     1     141.774 143.651  98.016  1.00  0.00     0.010 A 
ATOM      9  S   UNL     1     142.751 141.319  95.037  1.00  0.00    -0.128 S 
ATOM     10  Cl  UNL     1     139.560 140.091  96.147  1.00  0.00    -0.083 Cl
ENDROOT
BRANCH   1  11
ATOM     11  C   UNL     1     145.310 142.681  94.514  1.00  0.00     0.261 C 
ATOM     12  N   UNL     1     146.264 143.702  94.899  1.00  0.00    -0.347 N 
ATOM     13  O   UNL     1     145.541 141.978  93.589  1.00  0.00    -0.268 OA
ATOM     14  H   UNL     1     146.078 144.291  95.665  1.00  0.00     0.164 HD
BRANCH  12  15
ATOM     15  C   UNL     1     147.521 143.851  94.132  1.00  0.00     0.099 C 
ATOM     16  C   UNL     1     148.669 143.754  95.029  1.00  0.00     0.015 C 
ATOM     17  C   UNL     1     147.559 145.232  93.448  1.00  0.00     0.109 C 
ATOM     18  C   UNL     1     149.868 143.949  94.261  1.00  0.00     0.021 C 
ATOM     19  C   UNL     1     148.574 144.828  96.014  1.00  0.00     0.021 C 
ATOM     20  N   UNL     1     148.676 145.967  93.854  1.00  0.00    -0.301 NA
ATOM     21  C   UNL     1     149.834 145.277  93.566  1.00  0.00     0.085 C 
ATOM     22  C   UNL     1     148.609 146.206  95.248  1.00  0.00     0.085 C 
ENDBRANCH  12  15
ENDBRANCH   1  11
TORSDOF 2
ENDMDL
MODEL 14
REMARK VINA RESULT:    -5.152      5.849      8.339
REMARK INTER + INTRA:          -6.048
REMARK INTER:                  -5.720
REMARK INTRA:                  -0.328
REMARK UNBOUND:                -0.294
REMARK SMILES O=C(N[C@H]1CN2CCC1CC2)c1cc2cccc(Cl)c2s1
REMARK SMILES IDX 12 1 13 2 14 3 20 4 18 5 17 6 16 7 15 8 21 9 19 10 2 11 3 12
REMARK SMILES IDX 1 13 4 15 9 16 5 17 8 18 10 19 6 20 7 21 11 22
REMARK H PARENT 3 14
ROOT
ATOM      1  C   UNL     1     141.589 140.102  89.109  1.00  0.00     0.093 A 
ATOM      2  C   UNL     1     142.891 139.745  89.197  1.00  0.00     0.034 A 
ATOM      3  C   UNL     1     143.522 139.689  90.484  1.00  0.00    -0.005 A 
ATOM      4  C   UNL     1     142.639 140.036  91.565  1.00  0.00     0.054 A 
ATOM      5  C   UNL     1     143.107 140.025  92.857  1.00  0.00     0.058 A 
ATOM      6  C   UNL     1     144.437 139.677  93.113  1.00  0.00     0.022 A 
ATOM      7  C   UNL     1     145.297 139.339  92.054  1.00  0.00     0.002 A 
ATOM      8  C   UNL     1     144.824 139.350  90.742  1.00  0.00     0.010 A 
ATOM      9  S   UNL     1     141.061 140.402  90.741  1.00  0.00    -0.128 S 
ATOM     10  Cl  UNL     1     142.022 140.455  94.205  1.00  0.00    -0.083 Cl
ENDROOT
BRANCH   1  11
ATOM     11  C   UNL     1     140.774 140.211  87.816  1.00  0.00     0.261 C 
ATOM     12  N   UNL     1     141.077 139.362  86.680  1.00  0.00    -0.347 N 
ATOM     13  O   UNL     1     139.891 140.997  87.744  1.00  0.00    -0.268 OA
ATOM     14  H   UNL     1     141.811 138.708  86.731  1.00  0.00     0.164 HD
BRANCH  12  15
ATOM     15  C   UNL     1     140.274 139.488  85.442  1.00  0.00     0.099 C 
ATOM     16  C   UNL     1     139.534 138.254  85.198  1.00  0.00     0.015 C 
ATOM     17  C   UNL     1     141.203 139.738  84.237  1.00  0.00     0.109 C 
ATOM     18  C   UNL     1     138.804 138.393  83.969  1.00  0.00     0.021 C 
ATOM     19  C   UNL     1     140.494 137.164  85.043  1.00  0.00     0.021 C 
ATOM     20  N   UNL     1     141.048 138.747  83.264  1.00  0.00    -0.301 NA
ATOM     21  C   UNL     1     139.739 138.695  82.836  1.00  0.00     0.085 C 
ATOM     22  C   UNL     1     141.413 137.489  83.804  1.00  0.00     0.085 C 
ENDBRANCH  12  15
ENDBRANCH   1  11
TORSDOF 2
ENDMDL
MODEL 15
REMARK VINA RESULT:    -5.102     10.925     11.876
REMARK INTER + INTRA:          -5.992
REMARK INTER:                  -5.704
REMARK INTRA:                  -0.288
REMARK UNBOUND:                -0.294
REMARK SMILES O=C(N[C@H]1CN2CCC1CC2)c1cc2cccc(Cl)c2s1
REMARK SMILES IDX 12 1 13 2 14 3 20 4 18 5 17 6 16 7 15 8 21 9 19 10 2 11 3 12
REMARK SMILES IDX 1 13 4 15 9 16 5 17 8 18 10 19 6 20 7 21 11 22
REMARK H PARENT 3 14
ROOT
ATOM      1  C   UNL     1     151.378 136.874  89.878  1.00  0.00     0.093 A 
ATOM      2  C   UNL     1     150.912 138.009  90.447  1.00  0.00     0.034 A 
ATOM      3  C   UNL     1     151.337 138.361  91.772  1.00  0.00    -0.005 A 
ATOM      4  C   UNL     1     152.253 137.411  92.345  1.00  0.00     0.054 A 
ATOM      5  C   UNL     1     152.746 137.618  93.610  1.00  0.00     0.058 A 
ATOM      6  C   UNL     1     152.356 138.751  94.333  1.00  0.00     0.022 A 
ATOM      7  C   UNL     1     151.461 139.676  93.770  1.00  0.00     0.002 A 
ATOM      8  C   UNL     1     150.958 139.467  92.485  1.00  0.00     0.010 A 
ATOM      9  S   UNL     1     152.442 136.149  91.049  1.00  0.00    -0.128 S 
ATOM     10  Cl  UNL     1     153.880 136.447  94.331  1.00  0.00    -0.083 Cl
ENDROOT
BRANCH   1  11
ATOM     11  C   UNL     1     151.020 136.360  88.479  1.00  0.00     0.261 C 
ATOM     12  N   UNL     1     149.690 135.855  88.196  1.00  0.00    -0.347 N 
ATOM     13  O   UNL     1     151.839 136.372  87.623  1.00  0.00    -0.268 OA
ATOM     14  H   UNL     1     149.005 135.839  88.903  1.00  0.00     0.164 HD
BRANCH  12  15
ATOM     15  C   UNL     1     149.371 135.365  86.836  1.00  0.00     0.099 C 
ATOM     16  C   UNL     1     148.900 136.468  86.004  1.00  0.00     0.015 C 
ATOM     17  C   UNL     1     148.253 134.305  86.909  1.00  0.00     0.109 C 
ATOM     18  C   UNL     1     148.557 135.950  84.709  1.00  0.00     0.021 C 
ATOM     19  C   UNL     1     147.694 137.021  86.614  1.00  0.00     0.021 C 
ATOM     20  N   UNL     1     147.145 134.686  86.147  1.00  0.00    -0.301 NA
ATOM     21  C   UNL     1     147.511 134.882  84.833  1.00  0.00     0.085 C 
ATOM     22  C   UNL     1     146.601 135.887  86.665  1.00  0.00     0.085 C 
ENDBRANCH  12  15
ENDBRANCH   1  11
TORSDOF 2
ENDMDL
MODEL 16
REMARK VINA RESULT:    -5.093      5.640      6.524
REMARK INTER + INTRA:          -5.982
REMARK INTER:                  -5.683
REMARK INTRA:                  -0.299
REMARK UNBOUND:                -0.294
REMARK SMILES O=C(N[C@H]1CN2CCC1CC2)c1cc2cccc(Cl)c2s1
REMARK SMILES IDX 12 1 13 2 14 3 20 4 18 5 17 6 16 7 15 8 21 9 19 10 2 11 3 12
REMARK SMILES IDX 1 13 4 15 9 16 5 17 8 18 10 19 6 20 7 21 11 22
REMARK H PARENT 3 14
ROOT
ATOM      1  C   UNL     1     144.918 143.187  95.428  1.00  0.00     0.093 A 
ATOM      2  C   UNL     1     143.738 143.155  96.091  1.00  0.00     0.034 A 
ATOM      3  C   UNL     1     142.812 142.090  95.832  1.00  0.00    -0.005 A 
ATOM      4  C   UNL     1     143.288 141.149  94.855  1.00  0.00     0.054 A 
ATOM      5  C   UNL     1     142.505 140.074  94.507  1.00  0.00     0.058 A 
ATOM      6  C   UNL     1     141.253 139.901  95.106  1.00  0.00     0.022 A 
ATOM      7  C   UNL     1     140.792 140.824  96.060  1.00  0.00     0.002 A 
ATOM      8  C   UNL     1     141.584 141.916  96.414  1.00  0.00     0.010 A 
ATOM      9  S   UNL     1     144.922 141.793  94.386  1.00  0.00    -0.128 S 
ATOM     10  Cl  UNL     1     143.085 138.901  93.295  1.00  0.00    -0.083 Cl
ENDROOT
BRANCH   1  11
ATOM     11  C   UNL     1     146.008 144.252  95.588  1.00  0.00     0.261 C 
ATOM     12  N   UNL     1     147.264 144.136  94.873  1.00  0.00    -0.347 N 
ATOM     13  O   UNL     1     145.822 145.177  96.305  1.00  0.00    -0.268 OA
ATOM     14  H   UNL     1     147.427 143.369  94.278  1.00  0.00     0.164 HD
BRANCH  12  15
ATOM     15  C   UNL     1     148.300 145.179  95.046  1.00  0.00     0.099 C 
ATOM     16  C   UNL     1     148.200 146.166  93.975  1.00  0.00     0.015 C 
ATOM     17  C   UNL     1     149.703 144.542  94.985  1.00  0.00     0.109 C 
ATOM     18  C   UNL     1     149.246 147.135  94.147  1.00  0.00     0.021 C 
ATOM     19  C   UNL     1     148.409 145.483  92.701  1.00  0.00     0.021 C 
ATOM     20  N   UNL     1     150.469 145.103  93.960  1.00  0.00    -0.301 NA
ATOM     21  C   UNL     1     150.588 146.464  94.141  1.00  0.00     0.085 C 
ATOM     22  C   UNL     1     149.853 144.850  92.710  1.00  0.00     0.085 C 
ENDBRANCH  12  15
ENDBRANCH   1  11
TORSDOF 2
ENDMDL
MODEL 17
REMARK VINA RESULT:    -5.070      5.279      6.360
REMARK INTER + INTRA:          -5.956
REMARK INTER:                  -5.646
REMARK INTRA:                  -0.310
REMARK UNBOUND:                -0.294
REMARK SMILES O=C(N[C@H]1CN2CCC1CC2)c1cc2cccc(Cl)c2s1
REMARK SMILES IDX 12 1 13 2 14 3 20 4 18 5 17 6 16 7 15 8 21 9 19 10 2 11 3 12
REMARK SMILES IDX 1 13 4 15 9 16 5 17 8 18 10 19 6 20 7 21 11 22
REMARK H PARENT 3 14
ROOT
ATOM      1  C   UNL     1     144.332 142.714  95.215  1.00  0.00     0.093 A 
ATOM      2  C   UNL     1     143.586 141.679  94.765  1.00  0.00     0.034 A 
ATOM      3  C   UNL     1     142.346 141.367  95.416  1.00  0.00    -0.005 A 
ATOM      4  C   UNL     1     142.045 142.244  96.515  1.00  0.00     0.054 A 
ATOM      5  C   UNL     1     140.887 142.066  97.233  1.00  0.00     0.058 A 
ATOM      6  C   UNL     1     140.008 141.034  96.890  1.00  0.00     0.022 A 
ATOM      7  C   UNL     1     140.305 140.178  95.816  1.00  0.00     0.002 A 
ATOM      8  C   UNL     1     141.481 140.357  95.086  1.00  0.00     0.010 A 
ATOM      9  S   UNL     1     143.457 143.390  96.559  1.00  0.00    -0.128 S 
ATOM     10  Cl  UNL     1     140.505 143.147  98.598  1.00  0.00    -0.083 Cl
ENDROOT
BRANCH   1  11
ATOM     11  C   UNL     1     145.674 143.171  94.633  1.00  0.00     0.261 C 
ATOM     12  N   UNL     1     146.394 144.282  95.225  1.00  0.00    -0.347 N 
ATOM     13  O   UNL     1     146.125 142.614  93.691  1.00  0.00    -0.268 OA
ATOM     14  H   UNL     1     146.026 144.752  96.007  1.00  0.00     0.164 HD
BRANCH  12  15
ATOM     15  C   UNL     1     147.689 144.703  94.643  1.00  0.00     0.099 C 
ATOM     16  C   UNL     1     148.764 144.488  95.607  1.00  0.00     0.015 C 
ATOM     17  C   UNL     1     147.646 146.205  94.298  1.00  0.00     0.109 C 
ATOM     18  C   UNL     1     149.996 144.949  95.029  1.00  0.00     0.021 C 
ATOM     19  C   UNL     1     148.484 145.291  96.795  1.00  0.00     0.021 C 
ATOM     20  N   UNL     1     148.648 146.909  94.970  1.00  0.00    -0.301 NA
ATOM     21  C   UNL     1     149.888 146.397  94.653  1.00  0.00     0.085 C 
ATOM     22  C   UNL     1     148.445 146.807  96.369  1.00  0.00     0.085 C 
ENDBRANCH  12  15
ENDBRANCH   1  11
TORSDOF 2
ENDMDL
MODEL 18
REMARK VINA RESULT:    -5.041      4.993      7.457
REMARK INTER + INTRA:          -5.924
REMARK INTER:                  -5.628
REMARK INTRA:                  -0.296
REMARK UNBOUND:                -0.294
REMARK SMILES O=C(N[C@H]1CN2CCC1CC2)c1cc2cccc(Cl)c2s1
REMARK SMILES IDX 12 1 13 2 14 3 20 4 18 5 17 6 16 7 15 8 21 9 19 10 2 11 3 12
REMARK SMILES IDX 1 13 4 15 9 16 5 17 8 18 10 19 6 20 7 21 11 22
REMARK H PARENT 3 14
ROOT
ATOM      1  C   UNL     1     146.415 138.725  91.226  1.00  0.00     0.093 A 
ATOM      2  C   UNL     1     146.131 138.918  92.535  1.00  0.00     0.034 A 
ATOM      3  C   UNL     1     144.816 139.348  92.916  1.00  0.00    -0.005 A 
ATOM      4  C   UNL     1     143.929 139.522  91.797  1.00  0.00     0.054 A 
ATOM      5  C   UNL     1     142.635 139.930  92.010  1.00  0.00     0.058 A 
ATOM      6  C   UNL     1     142.187 140.174  93.312  1.00  0.00     0.022 A 
ATOM      7  C   UNL     1     143.057 140.004  94.403  1.00  0.00     0.002 A 
ATOM      8  C   UNL     1     144.372 139.589  94.189  1.00  0.00     0.010 A 
ATOM      9  S   UNL     1     144.953 139.093  90.357  1.00  0.00    -0.128 S 
ATOM     10  Cl  UNL     1     141.527 140.149  90.630  1.00  0.00    -0.083 Cl
ENDROOT
BRANCH   1  11
ATOM     11  C   UNL     1     147.765 138.272  90.659  1.00  0.00     0.261 C 
ATOM     12  N   UNL     1     148.743 137.625  91.512  1.00  0.00    -0.347 N 
ATOM     13  O   UNL     1     148.011 138.454  89.515  1.00  0.00    -0.268 OA
ATOM     14  H   UNL     1     148.548 137.472  92.464  1.00  0.00     0.164 HD
BRANCH  12  15
ATOM     15  C   UNL     1     150.040 137.197  90.938  1.00  0.00     0.099 C 
ATOM     16  C   UNL     1     150.534 136.018  91.644  1.00  0.00     0.015 C 
ATOM     17  C   UNL     1     151.081 138.323  91.095  1.00  0.00     0.109 C 
ATOM     18  C   UNL     1     151.811 135.658  91.095  1.00  0.00     0.021 C 
ATOM     19  C   UNL     1     150.719 136.368  93.050  1.00  0.00     0.021 C 
ATOM     20  N   UNL     1     152.189 137.890  91.827  1.00  0.00    -0.301 NA
ATOM     21  C   UNL     1     152.774 136.803  91.214  1.00  0.00     0.085 C 
ATOM     22  C   UNL     1     151.784 137.527  93.135  1.00  0.00     0.085 C 
ENDBRANCH  12  15
ENDBRANCH   1  11
TORSDOF 2
ENDMDL
MODEL 19
REMARK VINA RESULT:    -4.997      6.657     11.179
REMARK INTER + INTRA:          -5.875
REMARK INTER:                  -5.566
REMARK INTRA:                  -0.309
REMARK UNBOUND:                -0.294
REMARK SMILES O=C(N[C@H]1CN2CCC1CC2)c1cc2cccc(Cl)c2s1
REMARK SMILES IDX 12 1 13 2 14 3 20 4 18 5 17 6 16 7 15 8 21 9 19 10 2 11 3 12
REMARK SMILES IDX 1 13 4 15 9 16 5 17 8 18 10 19 6 20 7 21 11 22
REMARK H PARENT 3 14
ROOT
ATOM      1  C   UNL     1     149.221 138.330  90.197  1.00  0.00     0.093 A 
ATOM      2  C   UNL     1     150.461 138.800  90.471  1.00  0.00     0.034 A 
ATOM      3  C   UNL     1     151.424 138.908  89.412  1.00  0.00    -0.005 A 
ATOM      4  C   UNL     1     150.915 138.483  88.136  1.00  0.00     0.054 A 
ATOM      5  C   UNL     1     151.727 138.532  87.028  1.00  0.00     0.058 A 
ATOM      6  C   UNL     1     153.041 138.995  87.148  1.00  0.00     0.022 A 
ATOM      7  C   UNL     1     153.535 139.409  88.397  1.00  0.00     0.002 A 
ATOM      8  C   UNL     1     152.712 139.359  89.523  1.00  0.00     0.010 A 
ATOM      9  S   UNL     1     149.204 137.982  88.492  1.00  0.00    -0.128 S 
ATOM     10  Cl  UNL     1     151.107 138.006  85.442  1.00  0.00    -0.083 Cl
ENDROOT
BRANCH   1  11
ATOM     11  C   UNL     1     148.086 138.153  91.211  1.00  0.00     0.261 C 
ATOM     12  N   UNL     1     146.752 138.641  90.918  1.00  0.00    -0.347 N 
ATOM     13  O   UNL     1     148.301 137.615  92.244  1.00  0.00    -0.268 OA
ATOM     14  H   UNL     1     146.566 139.092  90.063  1.00  0.00     0.164 HD
BRANCH  12  15
ATOM     15  C   UNL     1     145.674 138.458  91.915  1.00  0.00     0.099 C 
ATOM     16  C   UNL     1     144.431 138.086  91.245  1.00  0.00     0.015 C 
ATOM     17  C   UNL     1     145.433 139.775  92.678  1.00  0.00     0.109 C 
ATOM     18  C   UNL     1     143.397 137.961  92.234  1.00  0.00     0.021 C 
ATOM     19  C   UNL     1     144.064 139.162  90.328  1.00  0.00     0.021 C 
ATOM     20  N   UNL     1     144.113 140.209  92.536  1.00  0.00    -0.301 NA
ATOM     21  C   UNL     1     143.240 139.246  92.992  1.00  0.00     0.085 C 
ATOM     22  C   UNL     1     143.843 140.475  91.171  1.00  0.00     0.085 C 
ENDBRANCH  12  15
ENDBRANCH   1  11
TORSDOF 2
ENDMDL
MODEL 20
REMARK VINA RESULT:    -4.877     10.856     11.605
REMARK INTER + INTRA:          -5.741
REMARK INTER:                  -5.429
REMARK INTRA:                  -0.312
REMARK UNBOUND:                -0.294
REMARK SMILES O=C(N[C@H]1CN2CCC1CC2)c1cc2cccc(Cl)c2s1
REMARK SMILES IDX 12 1 13 2 14 3 20 4 18 5 17 6 16 7 15 8 21 9 19 10 2 11 3 12
REMARK SMILES IDX 1 13 4 15 9 16 5 17 8 18 10 19 6 20 7 21 11 22
REMARK H PARENT 3 14
ROOT
ATOM      1  C   UNL     1     150.676 137.016  90.820  1.00  0.00     0.093 A 
ATOM      2  C   UNL     1     151.278 136.569  91.947  1.00  0.00     0.034 A 
ATOM      3  C   UNL     1     151.757 137.515  92.914  1.00  0.00    -0.005 A 
ATOM      4  C   UNL     1     151.519 138.883  92.537  1.00  0.00     0.054 A 
ATOM      5  C   UNL     1     151.924 139.899  93.368  1.00  0.00     0.058 A 
ATOM      6  C   UNL     1     152.564 139.598  94.575  1.00  0.00     0.022 A 
ATOM      7  C   UNL     1     152.796 138.261  94.939  1.00  0.00     0.002 A 
ATOM      8  C   UNL     1     152.386 137.227  94.097  1.00  0.00     0.010 A 
ATOM      9  S   UNL     1     150.681 138.753  90.928  1.00  0.00    -0.128 S 
ATOM     10  Cl  UNL     1     151.634 141.598  92.910  1.00  0.00    -0.083 Cl
ENDROOT
BRANCH   1  11
ATOM     11  C   UNL     1     150.115 136.139  89.696  1.00  0.00     0.261 C 
ATOM     12  N   UNL     1     149.662 136.734  88.453  1.00  0.00    -0.347 N 
ATOM     13  O   UNL     1     150.048 134.966  89.845  1.00  0.00    -0.268 OA
ATOM     14  H   UNL     1     149.712 137.708  88.322  1.00  0.00     0.164 HD
BRANCH  12  15
ATOM     15  C   UNL     1     149.124 135.864  87.383  1.00  0.00     0.099 C 
ATOM     16  C   UNL     1     150.057 135.814  86.261  1.00  0.00     0.015 C 
ATOM     17  C   UNL     1     147.784 136.429  86.870  1.00  0.00     0.109 C 
ATOM     18  C   UNL     1     149.485 135.001  85.225  1.00  0.00     0.021 C 
ATOM     19  C   UNL     1     150.225 137.170  85.743  1.00  0.00     0.021 C 
ATOM     20  N   UNL     1     147.840 136.697  85.500  1.00  0.00    -0.301 NA
ATOM     21  C   UNL     1     148.156 135.554  84.800  1.00  0.00     0.085 C 
ATOM     22  C   UNL     1     148.821 137.687  85.248  1.00  0.00     0.085 C 
ENDBRANCH  12  15
ENDBRANCH   1  11
TORSDOF 2
ENDMDL
