MODEL 1
REMARK VINA RESULT:   -10.573      0.000      0.000
REMARK INTER + INTRA:         -13.250
REMARK INTER:                 -12.427
REMARK INTRA:                  -0.823
REMARK UNBOUND:                -0.823
REMARK SMILES NC(=O)c1cccc2cn(-c3ccc([C@@H]4CCCNC4)cc3)nc12
REMARK SMILES IDX 10 1 23 2 8 3 9 4 24 5 4 6 7 7 5 8 6 9 2 10 3 11 1 12 11 15
REMARK SMILES IDX 12 16 22 17 13 18 21 19 14 20 15 21 16 22 20 23 17 24 19 25
REMARK SMILES IDX 18 26
REMARK H PARENT 1 13 1 14 19 27
ROOT
ATOM      1  N   UNL     1       5.544   3.382  40.442  1.00  0.00    -0.240 N 
ATOM      2  N   UNL     1       4.777   3.348  39.334  1.00  0.00    -0.167 NA
ATOM      3  C   UNL     1       5.267   5.471  39.977  1.00  0.00     0.021 A 
ATOM      4  C   UNL     1       5.869   4.634  40.874  1.00  0.00     0.123 A 
ATOM      5  C   UNL     1       4.585   4.641  39.015  1.00  0.00     0.105 A 
ATOM      6  C   UNL     1       3.864   5.220  37.954  1.00  0.00     0.067 A 
ATOM      7  C   UNL     1       5.318   6.859  40.005  1.00  0.00     0.012 A 
ATOM      8  C   UNL     1       3.895   6.632  37.955  1.00  0.00     0.016 A 
ATOM      9  C   UNL     1       4.589   7.411  38.934  1.00  0.00     0.002 A 
ENDROOT
BRANCH   6  10
ATOM     10  C   UNL     1       3.157   4.449  36.954  1.00  0.00     0.250 C 
ATOM     11  O   UNL     1       2.113   4.871  36.419  1.00  0.00    -0.269 OA
ATOM     12  N   UNL     1       3.687   3.213  36.585  1.00  0.00    -0.366 N 
ATOM     13  H   UNL     1       4.536   2.826  36.984  1.00  0.00     0.159 HD
ATOM     14  H   UNL     1       3.224   2.645  35.882  1.00  0.00     0.159 HD
ENDBRANCH   6  10
BRANCH   1  15
ATOM     15  C   UNL     1       5.935   2.202  41.048  1.00  0.00     0.065 A 
ATOM     16  C   UNL     1       5.919   2.093  42.438  1.00  0.00     0.028 A 
ATOM     17  C   UNL     1       6.346   1.120  40.268  1.00  0.00     0.028 A 
ATOM     18  C   UNL     1       6.313   0.904  43.050  1.00  0.00     0.006 A 
ATOM     19  C   UNL     1       6.740  -0.070  40.880  1.00  0.00     0.006 A 
ATOM     20  C   UNL     1       6.724  -0.178  42.271  1.00  0.00    -0.043 A 
BRANCH  20  21
ATOM     21  C   UNL     1       7.155  -1.473  42.936  1.00  0.00     0.033 C 
ATOM     22  C   UNL     1       7.959  -1.215  44.220  1.00  0.00     0.011 C 
ATOM     23  C   UNL     1       7.944  -2.382  41.975  1.00  0.00     0.089 C 
ATOM     24  C   UNL     1       8.418  -2.535  44.834  1.00  0.00     0.016 C 
ATOM     25  N   UNL     1       8.326  -3.638  42.625  1.00  0.00    -0.316 NA
ATOM     26  C   UNL     1       9.149  -3.399  43.810  1.00  0.00     0.081 C 
ATOM     27  H   UNL     1       8.847  -4.213  41.962  1.00  0.00     0.122 HD
ENDBRANCH  20  21
ENDBRANCH   1  15
TORSDOF 3
ENDMDL
MODEL 2
REMARK VINA RESULT:    -9.867      3.531      4.455
REMARK INTER + INTRA:         -12.421
REMARK INTER:                 -11.595
REMARK INTRA:                  -0.826
REMARK UNBOUND:                -0.823
REMARK SMILES NC(=O)c1cccc2cn(-c3ccc([C@@H]4CCCNC4)cc3)nc12
REMARK SMILES IDX 10 1 23 2 8 3 9 4 24 5 4 6 7 7 5 8 6 9 2 10 3 11 1 12 11 15
REMARK SMILES IDX 12 16 22 17 13 18 21 19 14 20 15 21 16 22 20 23 17 24 19 25
REMARK SMILES IDX 18 26
REMARK H PARENT 1 13 1 14 19 27
ROOT
ATOM      1  N   UNL     1       5.270   2.060  39.005  1.00  0.00    -0.240 N 
ATOM      2  N   UNL     1       4.576   3.012  38.350  1.00  0.00    -0.167 NA
ATOM      3  C   UNL     1       5.610   3.822  40.204  1.00  0.00     0.021 A 
ATOM      4  C   UNL     1       5.912   2.492  40.128  1.00  0.00     0.123 A 
ATOM      5  C   UNL     1       4.767   4.130  39.074  1.00  0.00     0.105 A 
ATOM      6  C   UNL     1       4.285   5.437  38.875  1.00  0.00     0.067 A 
ATOM      7  C   UNL     1       6.044   4.696  41.191  1.00  0.00     0.012 A 
ATOM      8  C   UNL     1       4.710   6.351  39.864  1.00  0.00     0.016 A 
ATOM      9  C   UNL     1       5.548   5.996  40.968  1.00  0.00     0.002 A 
ENDROOT
BRANCH   6  10
ATOM     10  C   UNL     1       3.438   5.815  37.765  1.00  0.00     0.250 C 
ATOM     11  O   UNL     1       3.584   6.901  37.169  1.00  0.00    -0.269 OA
ATOM     12  N   UNL     1       2.450   4.918  37.359  1.00  0.00    -0.366 N 
ATOM     13  H   UNL     1       2.293   4.020  37.804  1.00  0.00     0.159 HD
ATOM     14  H   UNL     1       1.839   5.144  36.581  1.00  0.00     0.159 HD
ENDBRANCH   6  10
BRANCH   1  15
ATOM     15  C   UNL     1       5.288   0.764  38.525  1.00  0.00     0.065 A 
ATOM     16  C   UNL     1       6.363  -0.075  38.821  1.00  0.00     0.028 A 
ATOM     17  C   UNL     1       4.231   0.293  37.745  1.00  0.00     0.028 A 
ATOM     18  C   UNL     1       6.381  -1.383  38.337  1.00  0.00     0.006 A 
ATOM     19  C   UNL     1       4.249  -1.015  37.261  1.00  0.00     0.006 A 
ATOM     20  C   UNL     1       5.325  -1.853  37.557  1.00  0.00    -0.043 A 
BRANCH  20  21
ATOM     21  C   UNL     1       5.345  -3.276  37.029  1.00  0.00     0.033 C 
ATOM     22  C   UNL     1       4.732  -4.266  38.033  1.00  0.00     0.011 C 
ATOM     23  C   UNL     1       6.762  -3.722  36.623  1.00  0.00     0.089 C 
ATOM     24  C   UNL     1       4.814  -5.691  37.491  1.00  0.00     0.016 C 
ATOM     25  N   UNL     1       6.757  -5.087  36.089  1.00  0.00    -0.316 NA
ATOM     26  C   UNL     1       6.238  -6.043  37.067  1.00  0.00     0.081 C 
ATOM     27  H   UNL     1       7.709  -5.350  35.834  1.00  0.00     0.122 HD
ENDBRANCH  20  21
ENDBRANCH   1  15
TORSDOF 3
ENDMDL
MODEL 3
REMARK VINA RESULT:    -9.756      1.698      2.777
REMARK INTER + INTRA:         -12.291
REMARK INTER:                 -11.477
REMARK INTRA:                  -0.813
REMARK UNBOUND:                -0.823
REMARK SMILES NC(=O)c1cccc2cn(-c3ccc([C@@H]4CCCNC4)cc3)nc12
REMARK SMILES IDX 10 1 23 2 8 3 9 4 24 5 4 6 7 7 5 8 6 9 2 10 3 11 1 12 11 15
REMARK SMILES IDX 12 16 22 17 13 18 21 19 14 20 15 21 16 22 20 23 17 24 19 25
REMARK SMILES IDX 18 26
REMARK H PARENT 1 13 1 14 19 27
ROOT
ATOM      1  N   UNL     1       5.230   2.297  39.387  1.00  0.00    -0.240 N 
ATOM      2  N   UNL     1       5.340   3.549  39.870  1.00  0.00    -0.167 NA
ATOM      3  C   UNL     1       4.057   3.460  37.998  1.00  0.00     0.021 A 
ATOM      4  C   UNL     1       4.469   2.183  38.260  1.00  0.00     0.123 A 
ATOM      5  C   UNL     1       4.616   4.305  39.025  1.00  0.00     0.105 A 
ATOM      6  C   UNL     1       4.367   5.690  39.026  1.00  0.00     0.067 A 
ATOM      7  C   UNL     1       3.249   3.848  36.937  1.00  0.00     0.012 A 
ATOM      8  C   UNL     1       3.549   6.117  37.957  1.00  0.00     0.016 A 
ATOM      9  C   UNL     1       3.017   5.237  36.962  1.00  0.00     0.002 A 
ENDROOT
BRANCH   6  10
ATOM     10  C   UNL     1       4.895   6.596  40.023  1.00  0.00     0.250 C 
ATOM     11  O   UNL     1       4.147   7.237  40.787  1.00  0.00    -0.269 OA
ATOM     12  N   UNL     1       6.280   6.723  40.124  1.00  0.00    -0.366 N 
ATOM     13  H   UNL     1       6.933   6.221  39.533  1.00  0.00     0.159 HD
ATOM     14  H   UNL     1       6.689   7.344  40.816  1.00  0.00     0.159 HD
ENDBRANCH   6  10
BRANCH   1  15
ATOM     15  C   UNL     1       5.866   1.250  40.027  1.00  0.00     0.065 A 
ATOM     16  C   UNL     1       6.141   0.071  39.334  1.00  0.00     0.028 A 
ATOM     17  C   UNL     1       6.234   1.372  41.368  1.00  0.00     0.028 A 
ATOM     18  C   UNL     1       6.783  -0.985  39.980  1.00  0.00     0.006 A 
ATOM     19  C   UNL     1       6.876   0.316  42.014  1.00  0.00     0.006 A 
ATOM     20  C   UNL     1       7.150  -0.863  41.320  1.00  0.00    -0.043 A 
BRANCH  20  21
ATOM     21  C   UNL     1       7.847  -2.013  42.025  1.00  0.00     0.033 C 
ATOM     22  C   UNL     1       7.285  -2.242  43.437  1.00  0.00     0.011 C 
ATOM     23  C   UNL     1       9.375  -1.820  42.073  1.00  0.00     0.089 C 
ATOM     24  C   UNL     1       8.041  -3.371  44.133  1.00  0.00     0.016 C 
ATOM     25  N   UNL     1      10.033  -2.952  42.731  1.00  0.00    -0.316 NA
ATOM     26  C   UNL     1       9.549  -3.132  44.099  1.00  0.00     0.081 C 
ATOM     27  H   UNL     1      11.040  -2.791  42.748  1.00  0.00     0.122 HD
ENDBRANCH  20  21
ENDBRANCH   1  15
TORSDOF 3
ENDMDL
MODEL 4
REMARK VINA RESULT:    -9.679      4.203      5.132
REMARK INTER + INTRA:         -12.200
REMARK INTER:                 -11.390
REMARK INTRA:                  -0.810
REMARK UNBOUND:                -0.823
REMARK SMILES NC(=O)c1cccc2cn(-c3ccc([C@@H]4CCCNC4)cc3)nc12
REMARK SMILES IDX 10 1 23 2 8 3 9 4 24 5 4 6 7 7 5 8 6 9 2 10 3 11 1 12 11 15
REMARK SMILES IDX 12 16 22 17 13 18 21 19 14 20 15 21 16 22 20 23 17 24 19 25
REMARK SMILES IDX 18 26
REMARK H PARENT 1 13 1 14 19 27
ROOT
ATOM      1  N   UNL     1       4.316   2.159  39.326  1.00  0.00    -0.240 N 
ATOM      2  N   UNL     1       3.944   3.213  38.575  1.00  0.00    -0.167 NA
ATOM      3  C   UNL     1       5.315   3.815  40.284  1.00  0.00     0.021 A 
ATOM      4  C   UNL     1       5.142   2.462  40.369  1.00  0.00     0.123 A 
ATOM      5  C   UNL     1       4.551   4.269  39.146  1.00  0.00     0.105 A 
ATOM      6  C   UNL     1       4.529   5.632  38.797  1.00  0.00     0.067 A 
ATOM      7  C   UNL     1       6.086   4.588  41.141  1.00  0.00     0.012 A 
ATOM      8  C   UNL     1       5.305   6.446  39.652  1.00  0.00     0.016 A 
ATOM      9  C   UNL     1       6.046   5.946  40.769  1.00  0.00     0.002 A 
ENDROOT
BRANCH   6  10
ATOM     10  C   UNL     1       3.787   6.156  37.671  1.00  0.00     0.250 C 
ATOM     11  O   UNL     1       4.248   7.060  36.946  1.00  0.00    -0.269 OA
ATOM     12  N   UNL     1       2.534   5.607  37.400  1.00  0.00    -0.366 N 
ATOM     13  H   UNL     1       2.116   4.867  37.954  1.00  0.00     0.159 HD
ATOM     14  H   UNL     1       1.985   5.944  36.615  1.00  0.00     0.159 HD
ENDBRANCH   6  10
BRANCH   1  15
ATOM     15  C   UNL     1       3.862   0.891  39.012  1.00  0.00     0.065 A 
ATOM     16  C   UNL     1       4.200   0.310  37.790  1.00  0.00     0.028 A 
ATOM     17  C   UNL     1       3.065   0.192  39.920  1.00  0.00     0.028 A 
ATOM     18  C   UNL     1       3.742  -0.969  37.475  1.00  0.00     0.006 A 
ATOM     19  C   UNL     1       2.607  -1.087  39.605  1.00  0.00     0.006 A 
ATOM     20  C   UNL     1       2.945  -1.668  38.381  1.00  0.00    -0.043 A 
BRANCH  20  21
ATOM     21  C   UNL     1       2.445  -3.059  38.038  1.00  0.00     0.033 C 
ATOM     22  C   UNL     1       0.926  -3.184  38.237  1.00  0.00     0.011 C 
ATOM     23  C   UNL     1       3.188  -4.152  38.828  1.00  0.00     0.089 C 
ATOM     24  C   UNL     1       0.466  -4.608  37.931  1.00  0.00     0.016 C 
ATOM     25  N   UNL     1       2.712  -5.489  38.462  1.00  0.00    -0.316 NA
ATOM     26  C   UNL     1       1.279  -5.635  38.715  1.00  0.00     0.081 C 
ATOM     27  H   UNL     1       3.223  -6.186  39.005  1.00  0.00     0.122 HD
ENDBRANCH  20  21
ENDBRANCH   1  15
TORSDOF 3
ENDMDL
MODEL 5
REMARK VINA RESULT:    -9.548      4.526      8.560
REMARK INTER + INTRA:         -12.046
REMARK INTER:                 -11.235
REMARK INTRA:                  -0.811
REMARK UNBOUND:                -0.823
REMARK SMILES NC(=O)c1cccc2cn(-c3ccc([C@@H]4CCCNC4)cc3)nc12
REMARK SMILES IDX 10 1 23 2 8 3 9 4 24 5 4 6 7 7 5 8 6 9 2 10 3 11 1 12 11 15
REMARK SMILES IDX 12 16 22 17 13 18 21 19 14 20 15 21 16 22 20 23 17 24 19 25
REMARK SMILES IDX 18 26
REMARK H PARENT 1 13 1 14 19 27
ROOT
ATOM      1  N   UNL     1       4.338  -1.084  38.542  1.00  0.00    -0.240 N 
ATOM      2  N   UNL     1       5.284  -1.812  37.917  1.00  0.00    -0.167 NA
ATOM      3  C   UNL     1       3.587  -3.101  38.704  1.00  0.00     0.021 A 
ATOM      4  C   UNL     1       3.293  -1.808  39.036  1.00  0.00     0.123 A 
ATOM      5  C   UNL     1       4.846  -3.082  37.999  1.00  0.00     0.105 A 
ATOM      6  C   UNL     1       5.419  -4.276  37.524  1.00  0.00     0.067 A 
ATOM      7  C   UNL     1       2.805  -4.210  38.999  1.00  0.00     0.012 A 
ATOM      8  C   UNL     1       4.647  -5.424  37.809  1.00  0.00     0.016 A 
ATOM      9  C   UNL     1       3.401  -5.390  38.512  1.00  0.00     0.002 A 
ENDROOT
BRANCH   6  10
ATOM     10  C   UNL     1       6.676  -4.330  36.810  1.00  0.00     0.250 C 
ATOM     11  O   UNL     1       6.902  -5.200  35.946  1.00  0.00    -0.269 OA
ATOM     12  N   UNL     1       7.637  -3.362  37.103  1.00  0.00    -0.366 N 
ATOM     13  H   UNL     1       7.502  -2.630  37.791  1.00  0.00     0.159 HD
ATOM     14  H   UNL     1       8.529  -3.363  36.619  1.00  0.00     0.159 HD
ENDBRANCH   6  10
BRANCH   1  15
ATOM     15  C   UNL     1       4.476   0.288  38.643  1.00  0.00     0.065 A 
ATOM     16  C   UNL     1       5.170   0.842  39.719  1.00  0.00     0.028 A 
ATOM     17  C   UNL     1       3.922   1.119  37.668  1.00  0.00     0.028 A 
ATOM     18  C   UNL     1       5.309   2.226  39.821  1.00  0.00     0.006 A 
ATOM     19  C   UNL     1       4.061   2.502  37.770  1.00  0.00     0.006 A 
ATOM     20  C   UNL     1       4.755   3.056  38.847  1.00  0.00    -0.043 A 
BRANCH  20  21
ATOM     21  C   UNL     1       4.905   4.563  38.958  1.00  0.00     0.033 C 
ATOM     22  C   UNL     1       5.403   4.986  40.349  1.00  0.00     0.011 C 
ATOM     23  C   UNL     1       3.601   5.302  38.600  1.00  0.00     0.089 C 
ATOM     24  C   UNL     1       5.494   6.507  40.441  1.00  0.00     0.016 C 
ATOM     25  N   UNL     1       3.773   6.754  38.685  1.00  0.00    -0.316 NA
ATOM     26  C   UNL     1       4.182   7.168  40.028  1.00  0.00     0.081 C 
ATOM     27  H   UNL     1       2.893   7.210  38.446  1.00  0.00     0.122 HD
ENDBRANCH  20  21
ENDBRANCH   1  15
TORSDOF 3
ENDMDL
MODEL 6
REMARK VINA RESULT:    -9.526      4.996      9.076
REMARK INTER + INTRA:         -12.020
REMARK INTER:                 -11.184
REMARK INTRA:                  -0.837
REMARK UNBOUND:                -0.823
REMARK SMILES NC(=O)c1cccc2cn(-c3ccc([C@@H]4CCCNC4)cc3)nc12
REMARK SMILES IDX 10 1 23 2 8 3 9 4 24 5 4 6 7 7 5 8 6 9 2 10 3 11 1 12 11 15
REMARK SMILES IDX 12 16 22 17 13 18 21 19 14 20 15 21 16 22 20 23 17 24 19 25
REMARK SMILES IDX 18 26
REMARK H PARENT 1 13 1 14 19 27
ROOT
ATOM      1  N   UNL     1       3.250  -1.736  39.340  1.00  0.00    -0.240 N 
ATOM      2  N   UNL     1       2.921  -2.175  40.571  1.00  0.00    -0.167 NA
ATOM      3  C   UNL     1       2.890  -3.841  39.027  1.00  0.00     0.021 A 
ATOM      4  C   UNL     1       3.248  -2.697  38.371  1.00  0.00     0.123 A 
ATOM      5  C   UNL     1       2.690  -3.491  40.412  1.00  0.00     0.105 A 
ATOM      6  C   UNL     1       2.310  -4.469  41.350  1.00  0.00     0.067 A 
ATOM      7  C   UNL     1       2.753  -5.096  38.449  1.00  0.00     0.012 A 
ATOM      8  C   UNL     1       2.161  -5.758  40.792  1.00  0.00     0.016 A 
ATOM      9  C   UNL     1       2.373  -6.055  39.409  1.00  0.00     0.002 A 
ENDROOT
BRANCH   6  10
ATOM     10  C   UNL     1       2.092  -4.188  42.753  1.00  0.00     0.250 C 
ATOM     11  O   UNL     1       1.140  -4.692  43.381  1.00  0.00    -0.269 OA
ATOM     12  N   UNL     1       2.995  -3.344  43.400  1.00  0.00    -0.366 N 
ATOM     13  H   UNL     1       3.788  -2.914  42.937  1.00  0.00     0.159 HD
ATOM     14  H   UNL     1       2.879  -3.128  44.385  1.00  0.00     0.159 HD
ENDBRANCH   6  10
BRANCH   1  15
ATOM     15  C   UNL     1       3.555  -0.403  39.140  1.00  0.00     0.065 A 
ATOM     16  C   UNL     1       4.213  -0.005  37.976  1.00  0.00     0.028 A 
ATOM     17  C   UNL     1       3.202   0.546  40.101  1.00  0.00     0.028 A 
ATOM     18  C   UNL     1       4.519   1.341  37.773  1.00  0.00     0.006 A 
ATOM     19  C   UNL     1       3.508   1.891  39.898  1.00  0.00     0.006 A 
ATOM     20  C   UNL     1       4.167   2.289  38.734  1.00  0.00    -0.043 A 
BRANCH  20  21
ATOM     21  C   UNL     1       4.502   3.753  38.515  1.00  0.00     0.033 C 
ATOM     22  C   UNL     1       4.845   4.464  39.834  1.00  0.00     0.011 C 
ATOM     23  C   UNL     1       3.376   4.499  37.773  1.00  0.00     0.089 C 
ATOM     24  C   UNL     1       5.127   5.943  39.582  1.00  0.00     0.016 C 
ATOM     25  N   UNL     1       3.729   5.903  37.545  1.00  0.00    -0.316 NA
ATOM     26  C   UNL     1       3.990   6.601  38.804  1.00  0.00     0.081 C 
ATOM     27  H   UNL     1       2.963   6.365  37.056  1.00  0.00     0.122 HD
ENDBRANCH  20  21
ENDBRANCH   1  15
TORSDOF 3
ENDMDL
MODEL 7
REMARK VINA RESULT:    -9.441      4.464      8.502
REMARK INTER + INTRA:         -11.920
REMARK INTER:                 -11.105
REMARK INTRA:                  -0.815
REMARK UNBOUND:                -0.823
REMARK SMILES NC(=O)c1cccc2cn(-c3ccc([C@@H]4CCCNC4)cc3)nc12
REMARK SMILES IDX 10 1 23 2 8 3 9 4 24 5 4 6 7 7 5 8 6 9 2 10 3 11 1 12 11 15
REMARK SMILES IDX 12 16 22 17 13 18 21 19 14 20 15 21 16 22 20 23 17 24 19 25
REMARK SMILES IDX 18 26
REMARK H PARENT 1 13 1 14 19 27
ROOT
ATOM      1  N   UNL     1       5.596  -1.151  38.299  1.00  0.00    -0.240 N 
ATOM      2  N   UNL     1       4.592  -2.049  38.276  1.00  0.00    -0.167 NA
ATOM      3  C   UNL     1       6.594  -2.984  37.747  1.00  0.00     0.021 A 
ATOM      4  C   UNL     1       6.824  -1.658  37.988  1.00  0.00     0.123 A 
ATOM      5  C   UNL     1       5.181  -3.209  37.934  1.00  0.00     0.105 A 
ATOM      6  C   UNL     1       4.631  -4.492  37.755  1.00  0.00     0.067 A 
ATOM      7  C   UNL     1       7.555  -3.921  37.392  1.00  0.00     0.012 A 
ATOM      8  C   UNL     1       5.584  -5.469  37.392  1.00  0.00     0.016 A 
ATOM      9  C   UNL     1       6.977  -5.194  37.219  1.00  0.00     0.002 A 
ENDROOT
BRANCH   6  10
ATOM     10  C   UNL     1       3.225  -4.789  37.927  1.00  0.00     0.250 C 
ATOM     11  O   UNL     1       2.822  -5.559  38.821  1.00  0.00    -0.269 OA
ATOM     12  N   UNL     1       2.316  -4.172  37.067  1.00  0.00    -0.366 N 
ATOM     13  H   UNL     1       2.589  -3.534  36.328  1.00  0.00     0.159 HD
ATOM     14  H   UNL     1       1.321  -4.351  37.159  1.00  0.00     0.159 HD
ENDBRANCH   6  10
BRANCH   1  15
ATOM     15  C   UNL     1       5.337   0.169  38.618  1.00  0.00     0.065 A 
ATOM     16  C   UNL     1       4.503   0.934  37.803  1.00  0.00     0.028 A 
ATOM     17  C   UNL     1       5.910   0.737  39.757  1.00  0.00     0.028 A 
ATOM     18  C   UNL     1       4.241   2.265  38.125  1.00  0.00     0.006 A 
ATOM     19  C   UNL     1       5.648   2.068  40.080  1.00  0.00     0.006 A 
ATOM     20  C   UNL     1       4.814   2.833  39.263  1.00  0.00    -0.043 A 
BRANCH  20  21
ATOM     21  C   UNL     1       4.530   4.282  39.614  1.00  0.00     0.033 C 
ATOM     22  C   UNL     1       4.185   5.114  38.368  1.00  0.00     0.011 C 
ATOM     23  C   UNL     1       5.693   4.927  40.393  1.00  0.00     0.089 C 
ATOM     24  C   UNL     1       3.956   6.574  38.751  1.00  0.00     0.016 C 
ATOM     25  N   UNL     1       5.390   6.315  40.747  1.00  0.00    -0.316 NA
ATOM     26  C   UNL     1       5.128   7.127  39.558  1.00  0.00     0.081 C 
ATOM     27  H   UNL     1       6.180   6.711  41.257  1.00  0.00     0.122 HD
ENDBRANCH  20  21
ENDBRANCH   1  15
TORSDOF 3
ENDMDL
MODEL 8
REMARK VINA RESULT:    -9.426      4.962      7.264
REMARK INTER + INTRA:         -11.903
REMARK INTER:                 -11.061
REMARK INTRA:                  -0.841
REMARK UNBOUND:                -0.823
REMARK SMILES NC(=O)c1cccc2cn(-c3ccc([C@@H]4CCCNC4)cc3)nc12
REMARK SMILES IDX 10 1 23 2 8 3 9 4 24 5 4 6 7 7 5 8 6 9 2 10 3 11 1 12 11 15
REMARK SMILES IDX 12 16 22 17 13 18 21 19 14 20 15 21 16 22 20 23 17 24 19 25
REMARK SMILES IDX 18 26
REMARK H PARENT 1 13 1 14 19 27
ROOT
ATOM      1  N   UNL     1       2.739  -0.485  40.236  1.00  0.00    -0.240 N 
ATOM      2  N   UNL     1       3.094  -1.568  39.517  1.00  0.00    -0.167 NA
ATOM      3  C   UNL     1       0.859  -1.498  39.918  1.00  0.00     0.021 A 
ATOM      4  C   UNL     1       1.405  -0.392  40.507  1.00  0.00     0.123 A 
ATOM      5  C   UNL     1       1.941  -2.225  39.299  1.00  0.00     0.105 A 
ATOM      6  C   UNL     1       1.693  -3.424  38.606  1.00  0.00     0.067 A 
ATOM      7  C   UNL     1      -0.487  -1.838  39.924  1.00  0.00     0.012 A 
ATOM      8  C   UNL     1       0.332  -3.798  38.595  1.00  0.00     0.016 A 
ATOM      9  C   UNL     1      -0.706  -3.041  39.224  1.00  0.00     0.002 A 
ENDROOT
BRANCH   6  10
ATOM     10  C   UNL     1       2.729  -4.204  37.963  1.00  0.00     0.250 C 
ATOM     11  O   UNL     1       2.638  -4.556  36.770  1.00  0.00    -0.269 OA
ATOM     12  N   UNL     1       3.855  -4.542  38.713  1.00  0.00    -0.366 N 
ATOM     13  H   UNL     1       3.981  -4.277  39.683  1.00  0.00     0.159 HD
ATOM     14  H   UNL     1       4.606  -5.083  38.295  1.00  0.00     0.159 HD
ENDBRANCH   6  10
BRANCH   1  15
ATOM     15  C   UNL     1       3.699   0.424  40.640  1.00  0.00     0.065 A 
ATOM     16  C   UNL     1       4.277   1.288  39.710  1.00  0.00     0.028 A 
ATOM     17  C   UNL     1       4.089   0.478  41.979  1.00  0.00     0.028 A 
ATOM     18  C   UNL     1       5.245   2.205  40.118  1.00  0.00     0.006 A 
ATOM     19  C   UNL     1       5.057   1.395  42.387  1.00  0.00     0.006 A 
ATOM     20  C   UNL     1       5.636   2.259  41.456  1.00  0.00    -0.043 A 
BRANCH  20  21
ATOM     21  C   UNL     1       6.691   3.256  41.900  1.00  0.00     0.033 C 
ATOM     22  C   UNL     1       6.934   3.192  43.417  1.00  0.00     0.011 C 
ATOM     23  C   UNL     1       6.348   4.693  41.465  1.00  0.00     0.089 C 
ATOM     24  C   UNL     1       7.962   4.240  43.835  1.00  0.00     0.016 C 
ATOM     25  N   UNL     1       7.390   5.636  41.877  1.00  0.00    -0.316 NA
ATOM     26  C   UNL     1       7.577   5.628  43.328  1.00  0.00     0.081 C 
ATOM     27  H   UNL     1       7.130   6.576  41.576  1.00  0.00     0.122 HD
ENDBRANCH  20  21
ENDBRANCH   1  15
TORSDOF 3
ENDMDL
MODEL 9
REMARK VINA RESULT:    -9.366      5.133      8.564
REMARK INTER + INTRA:         -11.832
REMARK INTER:                 -11.036
REMARK INTRA:                  -0.796
REMARK UNBOUND:                -0.823
REMARK SMILES NC(=O)c1cccc2cn(-c3ccc([C@@H]4CCCNC4)cc3)nc12
REMARK SMILES IDX 10 1 23 2 8 3 9 4 24 5 4 6 7 7 5 8 6 9 2 10 3 11 1 12 11 15
REMARK SMILES IDX 12 16 22 17 13 18 21 19 14 20 15 21 16 22 20 23 17 24 19 25
REMARK SMILES IDX 18 26
REMARK H PARENT 1 13 1 14 19 27
ROOT
ATOM      1  N   UNL     1       3.253  -1.359  38.848  1.00  0.00    -0.240 N 
ATOM      2  N   UNL     1       1.967  -1.707  39.049  1.00  0.00    -0.167 NA
ATOM      3  C   UNL     1       3.300  -3.512  38.693  1.00  0.00     0.021 A 
ATOM      4  C   UNL     1       4.101  -2.406  38.629  1.00  0.00     0.123 A 
ATOM      5  C   UNL     1       1.959  -3.049  38.960  1.00  0.00     0.105 A 
ATOM      6  C   UNL     1       0.898  -3.965  39.083  1.00  0.00     0.067 A 
ATOM      7  C   UNL     1       3.720  -4.825  38.532  1.00  0.00     0.012 A 
ATOM      8  C   UNL     1       1.293  -5.311  38.922  1.00  0.00     0.016 A 
ATOM      9  C   UNL     1       2.639  -5.719  38.659  1.00  0.00     0.002 A 
ENDROOT
BRANCH   6  10
ATOM     10  C   UNL     1      -0.469  -3.572  39.349  1.00  0.00     0.250 C 
ATOM     11  O   UNL     1      -1.435  -4.260  38.965  1.00  0.00    -0.269 OA
ATOM     12  N   UNL     1      -0.684  -2.397  40.071  1.00  0.00    -0.366 N 
ATOM     13  H   UNL     1       0.065  -1.805  40.411  1.00  0.00     0.159 HD
ATOM     14  H   UNL     1      -1.628  -2.092  40.283  1.00  0.00     0.159 HD
ENDBRANCH   6  10
BRANCH   1  15
ATOM     15  C   UNL     1       3.622  -0.027  38.873  1.00  0.00     0.065 A 
ATOM     16  C   UNL     1       3.539   0.698  40.062  1.00  0.00     0.028 A 
ATOM     17  C   UNL     1       4.079   0.592  37.709  1.00  0.00     0.028 A 
ATOM     18  C   UNL     1       3.912   2.042  40.087  1.00  0.00     0.006 A 
ATOM     19  C   UNL     1       4.452   1.936  37.734  1.00  0.00     0.006 A 
ATOM     20  C   UNL     1       4.368   2.661  38.923  1.00  0.00    -0.043 A 
BRANCH  20  21
ATOM     21  C   UNL     1       4.773   4.124  38.949  1.00  0.00     0.033 C 
ATOM     22  C   UNL     1       5.302   4.545  40.329  1.00  0.00     0.011 C 
ATOM     23  C   UNL     1       3.625   5.049  38.502  1.00  0.00     0.089 C 
ATOM     24  C   UNL     1       5.652   6.031  40.333  1.00  0.00     0.016 C 
ATOM     25  N   UNL     1       4.043   6.454  38.507  1.00  0.00    -0.316 NA
ATOM     26  C   UNL     1       4.483   6.878  39.835  1.00  0.00     0.081 C 
ATOM     27  H   UNL     1       3.260   7.036  38.209  1.00  0.00     0.122 HD
ENDBRANCH  20  21
ENDBRANCH   1  15
TORSDOF 3
ENDMDL
MODEL 10
REMARK VINA RESULT:    -9.352      4.656      6.428
REMARK INTER + INTRA:         -11.815
REMARK INTER:                 -10.996
REMARK INTRA:                  -0.819
REMARK UNBOUND:                -0.823
REMARK SMILES NC(=O)c1cccc2cn(-c3ccc([C@@H]4CCCNC4)cc3)nc12
REMARK SMILES IDX 10 1 23 2 8 3 9 4 24 5 4 6 7 7 5 8 6 9 2 10 3 11 1 12 11 15
REMARK SMILES IDX 12 16 22 17 13 18 21 19 14 20 15 21 16 22 20 23 17 24 19 25
REMARK SMILES IDX 18 26
REMARK H PARENT 1 13 1 14 19 27
ROOT
ATOM      1  N   UNL     1       3.023   0.279  40.928  1.00  0.00    -0.240 N 
ATOM      2  N   UNL     1       3.201  -0.515  39.854  1.00  0.00    -0.167 NA
ATOM      3  C   UNL     1       1.073  -0.601  40.645  1.00  0.00     0.021 A 
ATOM      4  C   UNL     1       1.761   0.267  41.446  1.00  0.00     0.123 A 
ATOM      5  C   UNL     1       1.999  -1.083  39.648  1.00  0.00     0.105 A 
ATOM      6  C   UNL     1       1.582  -2.003  38.668  1.00  0.00     0.067 A 
ATOM      7  C   UNL     1      -0.266  -0.941  40.782  1.00  0.00     0.012 A 
ATOM      8  C   UNL     1       0.223  -2.369  38.781  1.00  0.00     0.016 A 
ATOM      9  C   UNL     1      -0.656  -1.862  39.790  1.00  0.00     0.002 A 
ENDROOT
BRANCH   6  10
ATOM     10  C   UNL     1       2.456  -2.526  37.641  1.00  0.00     0.250 C 
ATOM     11  O   UNL     1       2.401  -3.718  37.279  1.00  0.00    -0.269 OA
ATOM     12  N   UNL     1       3.361  -1.649  37.042  1.00  0.00    -0.366 N 
ATOM     13  H   UNL     1       3.442  -0.671  37.294  1.00  0.00     0.159 HD
ATOM     14  H   UNL     1       3.986  -1.977  36.313  1.00  0.00     0.159 HD
ENDBRANCH   6  10
BRANCH   1  15
ATOM     15  C   UNL     1       4.079   1.024  41.421  1.00  0.00     0.065 A 
ATOM     16  C   UNL     1       4.592   0.753  42.689  1.00  0.00     0.028 A 
ATOM     17  C   UNL     1       4.633   2.046  40.648  1.00  0.00     0.028 A 
ATOM     18  C   UNL     1       5.658   1.503  43.185  1.00  0.00     0.006 A 
ATOM     19  C   UNL     1       5.698   2.796  41.144  1.00  0.00     0.006 A 
ATOM     20  C   UNL     1       6.211   2.525  42.414  1.00  0.00    -0.043 A 
BRANCH  20  21
ATOM     21  C   UNL     1       7.369   3.344  42.954  1.00  0.00     0.033 C 
ATOM     22  C   UNL     1       7.197   4.842  42.657  1.00  0.00     0.011 C 
ATOM     23  C   UNL     1       8.728   2.839  42.432  1.00  0.00     0.089 C 
ATOM     24  C   UNL     1       8.402   5.627  43.169  1.00  0.00     0.016 C 
ATOM     25  N   UNL     1       9.835   3.622  42.986  1.00  0.00    -0.316 NA
ATOM     26  C   UNL     1       9.711   5.039  42.647  1.00  0.00     0.081 C 
ATOM     27  H   UNL     1      10.716   3.263  42.619  1.00  0.00     0.122 HD
ENDBRANCH  20  21
ENDBRANCH   1  15
TORSDOF 3
ENDMDL
MODEL 11
REMARK VINA RESULT:    -9.278      4.769      8.739
REMARK INTER + INTRA:         -11.729
REMARK INTER:                 -11.205
REMARK INTRA:                  -0.524
REMARK UNBOUND:                -0.823
REMARK SMILES NC(=O)c1cccc2cn(-c3ccc([C@@H]4CCCNC4)cc3)nc12
REMARK SMILES IDX 10 1 23 2 8 3 9 4 24 5 4 6 7 7 5 8 6 9 2 10 3 11 1 12 11 15
REMARK SMILES IDX 12 16 22 17 13 18 21 19 14 20 15 21 16 22 20 23 17 24 19 25
REMARK SMILES IDX 18 26
REMARK H PARENT 1 13 1 14 19 27
ROOT
ATOM      1  N   UNL     1       3.180  -1.361  39.881  1.00  0.00    -0.240 N 
ATOM      2  N   UNL     1       3.267  -2.338  38.958  1.00  0.00    -0.167 NA
ATOM      3  C   UNL     1       2.561  -3.119  40.970  1.00  0.00     0.021 A 
ATOM      4  C   UNL     1       2.760  -1.774  41.112  1.00  0.00     0.123 A 
ATOM      5  C   UNL     1       2.886  -3.454  39.605  1.00  0.00     0.105 A 
ATOM      6  C   UNL     1       2.779  -4.780  39.149  1.00  0.00     0.067 A 
ATOM      7  C   UNL     1       2.125  -3.982  41.967  1.00  0.00     0.012 A 
ATOM      8  C   UNL     1       2.338  -5.684  40.141  1.00  0.00     0.016 A 
ATOM      9  C   UNL     1       2.027  -5.301  41.484  1.00  0.00     0.002 A 
ENDROOT
BRANCH   6  10
ATOM     10  C   UNL     1       3.087  -5.187  37.795  1.00  0.00     0.250 C 
ATOM     11  O   UNL     1       2.696  -4.531  36.809  1.00  0.00    -0.269 OA
ATOM     12  N   UNL     1       3.859  -6.335  37.616  1.00  0.00    -0.366 N 
ATOM     13  H   UNL     1       4.207  -6.900  38.382  1.00  0.00     0.159 HD
ATOM     14  H   UNL     1       4.102  -6.649  36.681  1.00  0.00     0.159 HD
ENDBRANCH   6  10
BRANCH   1  15
ATOM     15  C   UNL     1       3.508  -0.060  39.546  1.00  0.00     0.065 A 
ATOM     16  C   UNL     1       3.451   0.945  40.512  1.00  0.00     0.028 A 
ATOM     17  C   UNL     1       3.897   0.247  38.242  1.00  0.00     0.028 A 
ATOM     18  C   UNL     1       3.782   2.256  40.174  1.00  0.00     0.006 A 
ATOM     19  C   UNL     1       4.229   1.559  37.904  1.00  0.00     0.006 A 
ATOM     20  C   UNL     1       4.170   2.564  38.870  1.00  0.00    -0.043 A 
BRANCH  20  21
ATOM     21  C   UNL     1       4.529   3.992  38.501  1.00  0.00     0.033 C 
ATOM     22  C   UNL     1       4.913   4.822  39.737  1.00  0.00     0.011 C 
ATOM     23  C   UNL     1       3.404   4.685  37.709  1.00  0.00     0.089 C 
ATOM     24  C   UNL     1       5.219   6.263  39.336  1.00  0.00     0.016 C 
ATOM     25  N   UNL     1       3.780   6.052  37.338  1.00  0.00    -0.316 NA
ATOM     26  C   UNL     1       4.080   6.865  38.516  1.00  0.00     0.081 C 
ATOM     27  H   UNL     1       3.013   6.480  36.819  1.00  0.00     0.122 HD
ENDBRANCH  20  21
ENDBRANCH   1  15
TORSDOF 3
ENDMDL
MODEL 12
REMARK VINA RESULT:    -9.134      5.036      5.741
REMARK INTER + INTRA:         -11.559
REMARK INTER:                 -10.704
REMARK INTRA:                  -0.855
REMARK UNBOUND:                -0.823
REMARK SMILES NC(=O)c1cccc2cn(-c3ccc([C@@H]4CCCNC4)cc3)nc12
REMARK SMILES IDX 10 1 23 2 8 3 9 4 24 5 4 6 7 7 5 8 6 9 2 10 3 11 1 12 11 15
REMARK SMILES IDX 12 16 22 17 13 18 21 19 14 20 15 21 16 22 20 23 17 24 19 25
REMARK SMILES IDX 18 26
REMARK H PARENT 1 13 1 14 19 27
ROOT
ATOM      1  N   UNL     1       3.723   0.064  40.529  1.00  0.00    -0.240 N 
ATOM      2  N   UNL     1       3.511   0.944  39.532  1.00  0.00    -0.167 NA
ATOM      3  C   UNL     1       4.943   1.751  41.099  1.00  0.00     0.021 A 
ATOM      4  C   UNL     1       4.578   0.497  41.501  1.00  0.00     0.123 A 
ATOM      5  C   UNL     1       4.260   2.014  39.856  1.00  0.00     0.105 A 
ATOM      6  C   UNL     1       4.436   3.240  39.187  1.00  0.00     0.067 A 
ATOM      7  C   UNL     1       5.812   2.597  41.776  1.00  0.00     0.012 A 
ATOM      8  C   UNL     1       5.314   4.123  39.852  1.00  0.00     0.016 A 
ATOM      9  C   UNL     1       5.970   3.815  41.086  1.00  0.00     0.002 A 
ENDROOT
BRANCH   6  10
ATOM     10  C   UNL     1       3.783   3.569  37.939  1.00  0.00     0.250 C 
ATOM     11  O   UNL     1       3.241   4.677  37.756  1.00  0.00    -0.269 OA
ATOM     12  N   UNL     1       3.789   2.612  36.924  1.00  0.00    -0.366 N 
ATOM     13  H   UNL     1       4.220   1.700  37.018  1.00  0.00     0.159 HD
ATOM     14  H   UNL     1       3.347   2.809  36.032  1.00  0.00     0.159 HD
ENDBRANCH   6  10
BRANCH   1  15
ATOM     15  C   UNL     1       3.094  -1.166  40.513  1.00  0.00     0.065 A 
ATOM     16  C   UNL     1       2.629  -1.696  39.309  1.00  0.00     0.028 A 
ATOM     17  C   UNL     1       2.924  -1.879  41.700  1.00  0.00     0.028 A 
ATOM     18  C   UNL     1       1.994  -2.938  39.292  1.00  0.00     0.006 A 
ATOM     19  C   UNL     1       2.290  -3.121  41.684  1.00  0.00     0.006 A 
ATOM     20  C   UNL     1       1.824  -3.651  40.479  1.00  0.00    -0.043 A 
BRANCH  20  21
ATOM     21  C   UNL     1       1.132  -5.001  40.462  1.00  0.00     0.033 C 
ATOM     22  C   UNL     1       1.838  -6.016  41.375  1.00  0.00     0.011 C 
ATOM     23  C   UNL     1       0.992  -5.561  39.034  1.00  0.00     0.089 C 
ATOM     24  C   UNL     1       1.146  -7.375  41.294  1.00  0.00     0.016 C 
ATOM     25  N   UNL     1       0.297  -6.851  39.034  1.00  0.00    -0.316 NA
ATOM     26  C   UNL     1       1.003  -7.840  39.848  1.00  0.00     0.081 C 
ATOM     27  H   UNL     1       0.224  -7.192  38.076  1.00  0.00     0.122 HD
ENDBRANCH  20  21
ENDBRANCH   1  15
TORSDOF 3
ENDMDL
MODEL 13
REMARK VINA RESULT:    -9.047      5.333      7.415
REMARK INTER + INTRA:         -11.457
REMARK INTER:                 -10.802
REMARK INTRA:                  -0.655
REMARK UNBOUND:                -0.823
REMARK SMILES NC(=O)c1cccc2cn(-c3ccc([C@@H]4CCCNC4)cc3)nc12
REMARK SMILES IDX 10 1 23 2 8 3 9 4 24 5 4 6 7 7 5 8 6 9 2 10 3 11 1 12 11 15
REMARK SMILES IDX 12 16 22 17 13 18 21 19 14 20 15 21 16 22 20 23 17 24 19 25
REMARK SMILES IDX 18 26
REMARK H PARENT 1 13 1 14 19 27
ROOT
ATOM      1  N   UNL     1       2.365  -1.111  40.225  1.00  0.00    -0.240 N 
ATOM      2  N   UNL     1       2.815  -2.156  39.504  1.00  0.00    -0.167 NA
ATOM      3  C   UNL     1       0.550  -2.143  39.678  1.00  0.00     0.021 A 
ATOM      4  C   UNL     1       1.008  -1.053  40.363  1.00  0.00     0.123 A 
ATOM      5  C   UNL     1       1.704  -2.825  39.144  1.00  0.00     0.105 A 
ATOM      6  C   UNL     1       1.554  -3.998  38.382  1.00  0.00     0.067 A 
ATOM      7  C   UNL     1      -0.783  -2.507  39.534  1.00  0.00     0.012 A 
ATOM      8  C   UNL     1       0.209  -4.396  38.218  1.00  0.00     0.016 A 
ATOM      9  C   UNL     1      -0.904  -3.684  38.768  1.00  0.00     0.002 A 
ENDROOT
BRANCH   6  10
ATOM     10  C   UNL     1       2.666  -4.732  37.817  1.00  0.00     0.250 C 
ATOM     11  O   UNL     1       3.300  -4.304  36.832  1.00  0.00    -0.269 OA
ATOM     12  N   UNL     1       3.030  -5.936  38.419  1.00  0.00    -0.366 N 
ATOM     13  H   UNL     1       2.553  -6.325  39.225  1.00  0.00     0.159 HD
ATOM     14  H   UNL     1       3.808  -6.477  38.056  1.00  0.00     0.159 HD
ENDBRANCH   6  10
BRANCH   1  15
ATOM     15  C   UNL     1       3.259  -0.203  40.760  1.00  0.00     0.065 A 
ATOM     16  C   UNL     1       3.746  -0.383  42.055  1.00  0.00     0.028 A 
ATOM     17  C   UNL     1       3.676   0.894  40.004  1.00  0.00     0.028 A 
ATOM     18  C   UNL     1       4.649   0.533  42.594  1.00  0.00     0.006 A 
ATOM     19  C   UNL     1       4.579   1.809  40.544  1.00  0.00     0.006 A 
ATOM     20  C   UNL     1       5.066   1.629  41.839  1.00  0.00    -0.043 A 
BRANCH  20  21
ATOM     21  C   UNL     1       6.047   2.627  42.426  1.00  0.00     0.033 C 
ATOM     22  C   UNL     1       6.120   3.915  41.590  1.00  0.00     0.011 C 
ATOM     23  C   UNL     1       7.450   2.019  42.611  1.00  0.00     0.089 C 
ATOM     24  C   UNL     1       7.152   4.874  42.181  1.00  0.00     0.016 C 
ATOM     25  N   UNL     1       8.376   2.987  43.204  1.00  0.00    -0.316 NA
ATOM     26  C   UNL     1       8.501   4.186  42.376  1.00  0.00     0.081 C 
ATOM     27  H   UNL     1       9.293   2.553  43.309  1.00  0.00     0.122 HD
ENDBRANCH  20  21
ENDBRANCH   1  15
TORSDOF 3
ENDMDL
MODEL 14
REMARK VINA RESULT:    -9.031      5.328      8.275
REMARK INTER + INTRA:         -11.438
REMARK INTER:                 -10.788
REMARK INTRA:                  -0.651
REMARK UNBOUND:                -0.823
REMARK SMILES NC(=O)c1cccc2cn(-c3ccc([C@@H]4CCCNC4)cc3)nc12
REMARK SMILES IDX 10 1 23 2 8 3 9 4 24 5 4 6 7 7 5 8 6 9 2 10 3 11 1 12 11 15
REMARK SMILES IDX 12 16 22 17 13 18 21 19 14 20 15 21 16 22 20 23 17 24 19 25
REMARK SMILES IDX 18 26
REMARK H PARENT 1 13 1 14 19 27
ROOT
ATOM      1  N   UNL     1       3.259  -2.833  41.396  1.00  0.00    -0.240 N 
ATOM      2  N   UNL     1       3.335  -3.299  40.134  1.00  0.00    -0.167 NA
ATOM      3  C   UNL     1       2.234  -4.728  41.515  1.00  0.00     0.021 A 
ATOM      4  C   UNL     1       2.607  -3.652  42.270  1.00  0.00     0.123 A 
ATOM      5  C   UNL     1       2.702  -4.486  40.172  1.00  0.00     0.105 A 
ATOM      6  C   UNL     1       2.469  -5.427  39.152  1.00  0.00     0.067 A 
ATOM      7  C   UNL     1       1.535  -5.837  41.975  1.00  0.00     0.012 A 
ATOM      8  C   UNL     1       1.760  -6.567  39.588  1.00  0.00     0.016 A 
ATOM      9  C   UNL     1       1.315  -6.761  40.934  1.00  0.00     0.002 A 
ENDROOT
BRANCH   6  10
ATOM     10  C   UNL     1       2.909  -5.249  37.785  1.00  0.00     0.250 C 
ATOM     11  O   UNL     1       4.068  -5.538  37.427  1.00  0.00    -0.269 OA
ATOM     12  N   UNL     1       1.989  -4.756  36.859  1.00  0.00    -0.366 N 
ATOM     13  H   UNL     1       1.034  -4.512  37.096  1.00  0.00     0.159 HD
ATOM     14  H   UNL     1       2.258  -4.624  35.890  1.00  0.00     0.159 HD
ENDBRANCH   6  10
BRANCH   1  15
ATOM     15  C   UNL     1       3.820  -1.610  41.716  1.00  0.00     0.065 A 
ATOM     16  C   UNL     1       3.069  -0.442  41.586  1.00  0.00     0.028 A 
ATOM     17  C   UNL     1       5.137  -1.546  42.173  1.00  0.00     0.028 A 
ATOM     18  C   UNL     1       3.635   0.791  41.911  1.00  0.00     0.006 A 
ATOM     19  C   UNL     1       5.703  -0.313  42.497  1.00  0.00     0.006 A 
ATOM     20  C   UNL     1       4.952   0.856  42.366  1.00  0.00    -0.043 A 
BRANCH  20  21
ATOM     21  C   UNL     1       5.569   2.197  42.718  1.00  0.00     0.033 C 
ATOM     22  C   UNL     1       6.167   2.891  41.483  1.00  0.00     0.011 C 
ATOM     23  C   UNL     1       6.622   2.074  43.835  1.00  0.00     0.089 C 
ATOM     24  C   UNL     1       6.822   4.212  41.882  1.00  0.00     0.016 C 
ATOM     25  N   UNL     1       7.186   3.382  44.181  1.00  0.00    -0.316 NA
ATOM     26  C   UNL     1       7.816   4.016  43.024  1.00  0.00     0.081 C 
ATOM     27  H   UNL     1       7.879   3.263  44.920  1.00  0.00     0.122 HD
ENDBRANCH  20  21
ENDBRANCH   1  15
TORSDOF 3
ENDMDL
MODEL 15
REMARK VINA RESULT:    -8.965      3.915      5.091
REMARK INTER + INTRA:         -11.361
REMARK INTER:                 -10.664
REMARK INTRA:                  -0.697
REMARK UNBOUND:                -0.823
REMARK SMILES NC(=O)c1cccc2cn(-c3ccc([C@@H]4CCCNC4)cc3)nc12
REMARK SMILES IDX 10 1 23 2 8 3 9 4 24 5 4 6 7 7 5 8 6 9 2 10 3 11 1 12 11 15
REMARK SMILES IDX 12 16 22 17 13 18 21 19 14 20 15 21 16 22 20 23 17 24 19 25
REMARK SMILES IDX 18 26
REMARK H PARENT 1 13 1 14 19 27
ROOT
ATOM      1  N   UNL     1       4.923   2.323  38.702  1.00  0.00    -0.240 N 
ATOM      2  N   UNL     1       5.686   2.757  39.724  1.00  0.00    -0.167 NA
ATOM      3  C   UNL     1       4.365   4.401  38.879  1.00  0.00     0.021 A 
ATOM      4  C   UNL     1       4.108   3.271  38.154  1.00  0.00     0.123 A 
ATOM      5  C   UNL     1       5.362   4.055  39.863  1.00  0.00     0.105 A 
ATOM      6  C   UNL     1       5.838   5.021  40.770  1.00  0.00     0.067 A 
ATOM      7  C   UNL     1       3.766   5.639  38.688  1.00  0.00     0.012 A 
ATOM      8  C   UNL     1       5.248   6.293  40.600  1.00  0.00     0.016 A 
ATOM      9  C   UNL     1       4.260   6.585  39.607  1.00  0.00     0.002 A 
ENDROOT
BRANCH   6  10
ATOM     10  C   UNL     1       6.835   4.744  41.781  1.00  0.00     0.250 C 
ATOM     11  O   UNL     1       7.049   5.533  42.722  1.00  0.00    -0.269 OA
ATOM     12  N   UNL     1       7.549   3.550  41.688  1.00  0.00    -0.366 N 
ATOM     13  H   UNL     1       7.409   2.871  40.947  1.00  0.00     0.159 HD
ATOM     14  H   UNL     1       8.252   3.317  42.381  1.00  0.00     0.159 HD
ENDBRANCH   6  10
BRANCH   1  15
ATOM     15  C   UNL     1       5.007   1.008  38.285  1.00  0.00     0.065 A 
ATOM     16  C   UNL     1       6.196   0.298  38.449  1.00  0.00     0.028 A 
ATOM     17  C   UNL     1       3.900   0.389  37.702  1.00  0.00     0.028 A 
ATOM     18  C   UNL     1       6.281  -1.029  38.030  1.00  0.00     0.006 A 
ATOM     19  C   UNL     1       3.984  -0.939  37.283  1.00  0.00     0.006 A 
ATOM     20  C   UNL     1       5.175  -1.648  37.446  1.00  0.00    -0.043 A 
BRANCH  20  21
ATOM     21  C   UNL     1       5.267  -3.092  36.988  1.00  0.00     0.033 C 
ATOM     22  C   UNL     1       4.696  -4.061  38.036  1.00  0.00     0.011 C 
ATOM     23  C   UNL     1       6.706  -3.489  36.609  1.00  0.00     0.089 C 
ATOM     24  C   UNL     1       4.850  -5.505  37.565  1.00  0.00     0.016 C 
ATOM     25  N   UNL     1       6.770  -4.876  36.142  1.00  0.00    -0.316 NA
ATOM     26  C   UNL     1       6.291  -5.807  37.163  1.00  0.00     0.081 C 
ATOM     27  H   UNL     1       7.735  -5.104  35.903  1.00  0.00     0.122 HD
ENDBRANCH  20  21
ENDBRANCH   1  15
TORSDOF 3
ENDMDL
MODEL 16
REMARK VINA RESULT:    -8.946      5.778      8.640
REMARK INTER + INTRA:         -11.338
REMARK INTER:                 -10.533
REMARK INTRA:                  -0.804
REMARK UNBOUND:                -0.823
REMARK SMILES NC(=O)c1cccc2cn(-c3ccc([C@@H]4CCCNC4)cc3)nc12
REMARK SMILES IDX 10 1 23 2 8 3 9 4 24 5 4 6 7 7 5 8 6 9 2 10 3 11 1 12 11 15
REMARK SMILES IDX 12 16 22 17 13 18 21 19 14 20 15 21 16 22 20 23 17 24 19 25
REMARK SMILES IDX 18 26
REMARK H PARENT 1 13 1 14 19 27
ROOT
ATOM      1  N   UNL     1       2.510  -3.176  41.956  1.00  0.00    -0.240 N 
ATOM      2  N   UNL     1       2.145  -3.568  40.720  1.00  0.00    -0.167 NA
ATOM      3  C   UNL     1       1.531  -5.066  42.314  1.00  0.00     0.021 A 
ATOM      4  C   UNL     1       2.166  -4.039  42.955  1.00  0.00     0.123 A 
ATOM      5  C   UNL     1       1.528  -4.749  40.906  1.00  0.00     0.105 A 
ATOM      6  C   UNL     1       0.939  -5.626  39.977  1.00  0.00     0.067 A 
ATOM      7  C   UNL     1       0.996  -6.193  42.924  1.00  0.00     0.012 A 
ATOM      8  C   UNL     1       0.386  -6.784  40.566  1.00  0.00     0.016 A 
ATOM      9  C   UNL     1       0.414  -7.052  41.971  1.00  0.00     0.002 A 
ENDROOT
BRANCH   6  10
ATOM     10  C   UNL     1       0.900  -5.372  38.553  1.00  0.00     0.250 C 
ATOM     11  O   UNL     1      -0.178  -5.263  37.936  1.00  0.00    -0.269 OA
ATOM     12  N   UNL     1       2.114  -5.233  37.879  1.00  0.00    -0.366 N 
ATOM     13  H   UNL     1       3.017  -5.306  38.333  1.00  0.00     0.159 HD
ATOM     14  H   UNL     1       2.127  -5.047  36.881  1.00  0.00     0.159 HD
ENDBRANCH   6  10
BRANCH   1  15
ATOM     15  C   UNL     1       3.180  -1.980  42.133  1.00  0.00     0.065 A 
ATOM     16  C   UNL     1       4.575  -1.954  42.125  1.00  0.00     0.028 A 
ATOM     17  C   UNL     1       2.462  -0.797  42.317  1.00  0.00     0.028 A 
ATOM     18  C   UNL     1       5.251  -0.747  42.302  1.00  0.00     0.006 A 
ATOM     19  C   UNL     1       3.138   0.409  42.494  1.00  0.00     0.006 A 
ATOM     20  C   UNL     1       4.533   0.435  42.487  1.00  0.00    -0.043 A 
BRANCH  20  21
ATOM     21  C   UNL     1       5.269   1.748  42.682  1.00  0.00     0.033 C 
ATOM     22  C   UNL     1       5.671   2.381  41.340  1.00  0.00     0.011 C 
ATOM     23  C   UNL     1       6.497   1.593  43.599  1.00  0.00     0.089 C 
ATOM     24  C   UNL     1       6.451   3.672  41.575  1.00  0.00     0.016 C 
ATOM     25  N   UNL     1       7.177   2.875  43.798  1.00  0.00    -0.316 NA
ATOM     26  C   UNL     1       7.622   3.448  42.528  1.00  0.00     0.081 C 
ATOM     27  H   UNL     1       7.984   2.735  44.406  1.00  0.00     0.122 HD
ENDBRANCH  20  21
ENDBRANCH   1  15
TORSDOF 3
ENDMDL
MODEL 17
REMARK VINA RESULT:    -8.898      5.597      6.756
REMARK INTER + INTRA:         -11.282
REMARK INTER:                 -10.449
REMARK INTRA:                  -0.833
REMARK UNBOUND:                -0.823
REMARK SMILES NC(=O)c1cccc2cn(-c3ccc([C@@H]4CCCNC4)cc3)nc12
REMARK SMILES IDX 10 1 23 2 8 3 9 4 24 5 4 6 7 7 5 8 6 9 2 10 3 11 1 12 11 15
REMARK SMILES IDX 12 16 22 17 13 18 21 19 14 20 15 21 16 22 20 23 17 24 19 25
REMARK SMILES IDX 18 26
REMARK H PARENT 1 13 1 14 19 27
ROOT
ATOM      1  N   UNL     1       3.770  -0.400  40.715  1.00  0.00    -0.240 N 
ATOM      2  N   UNL     1       4.576  -0.064  41.741  1.00  0.00    -0.167 NA
ATOM      3  C   UNL     1       4.439   1.581  40.181  1.00  0.00     0.021 A 
ATOM      4  C   UNL     1       3.650   0.553  39.746  1.00  0.00     0.123 A 
ATOM      5  C   UNL     1       5.013   1.172  41.440  1.00  0.00     0.105 A 
ATOM      6  C   UNL     1       5.881   2.028  42.143  1.00  0.00     0.067 A 
ATOM      7  C   UNL     1       4.636   2.786  39.519  1.00  0.00     0.012 A 
ATOM      8  C   UNL     1       6.102   3.263  41.494  1.00  0.00     0.016 A 
ATOM      9  C   UNL     1       5.508   3.622  40.244  1.00  0.00     0.002 A 
ENDROOT
BRANCH   6  10
ATOM     10  C   UNL     1       6.491   1.683  43.408  1.00  0.00     0.250 C 
ATOM     11  O   UNL     1       6.401   2.428  44.404  1.00  0.00    -0.269 OA
ATOM     12  N   UNL     1       7.177   0.471  43.496  1.00  0.00    -0.366 N 
ATOM     13  H   UNL     1       7.275  -0.174  42.720  1.00  0.00     0.159 HD
ATOM     14  H   UNL     1       7.614   0.191  44.369  1.00  0.00     0.159 HD
ENDBRANCH   6  10
BRANCH   1  15
ATOM     15  C   UNL     1       3.142  -1.632  40.703  1.00  0.00     0.065 A 
ATOM     16  C   UNL     1       3.212  -2.439  39.567  1.00  0.00     0.028 A 
ATOM     17  C   UNL     1       2.441  -2.069  41.827  1.00  0.00     0.028 A 
ATOM     18  C   UNL     1       2.579  -3.682  39.555  1.00  0.00     0.006 A 
ATOM     19  C   UNL     1       1.809  -3.312  41.815  1.00  0.00     0.006 A 
ATOM     20  C   UNL     1       1.877  -4.119  40.678  1.00  0.00    -0.043 A 
BRANCH  20  21
ATOM     21  C   UNL     1       1.187  -5.471  40.665  1.00  0.00     0.033 C 
ATOM     22  C   UNL     1       1.930  -6.499  41.533  1.00  0.00     0.011 C 
ATOM     23  C   UNL     1       0.993  -6.007  39.234  1.00  0.00     0.089 C 
ATOM     24  C   UNL     1       1.238  -7.858  41.457  1.00  0.00     0.016 C 
ATOM     25  N   UNL     1       0.301  -7.298  39.240  1.00  0.00    -0.316 NA
ATOM     26  C   UNL     1       1.040  -8.299  40.009  1.00  0.00     0.081 C 
ATOM     27  H   UNL     1       0.192  -7.624  38.280  1.00  0.00     0.122 HD
ENDBRANCH  20  21
ENDBRANCH   1  15
TORSDOF 3
ENDMDL
MODEL 18
REMARK VINA RESULT:    -8.857      4.988      5.583
REMARK INTER + INTRA:         -11.234
REMARK INTER:                 -10.444
REMARK INTRA:                  -0.790
REMARK UNBOUND:                -0.823
REMARK SMILES NC(=O)c1cccc2cn(-c3ccc([C@@H]4CCCNC4)cc3)nc12
REMARK SMILES IDX 10 1 23 2 8 3 9 4 24 5 4 6 7 7 5 8 6 9 2 10 3 11 1 12 11 15
REMARK SMILES IDX 12 16 22 17 13 18 21 19 14 20 15 21 16 22 20 23 17 24 19 25
REMARK SMILES IDX 18 26
REMARK H PARENT 1 13 1 14 19 27
ROOT
ATOM      1  N   UNL     1       3.559   0.660  40.131  1.00  0.00    -0.240 N 
ATOM      2  N   UNL     1       3.327   1.607  39.203  1.00  0.00    -0.167 NA
ATOM      3  C   UNL     1       4.856   2.271  40.747  1.00  0.00     0.021 A 
ATOM      4  C   UNL     1       4.470   1.005  41.086  1.00  0.00     0.123 A 
ATOM      5  C   UNL     1       4.124   2.632  39.557  1.00  0.00     0.105 A 
ATOM      6  C   UNL     1       4.306   3.893  38.959  1.00  0.00     0.067 A 
ATOM      7  C   UNL     1       5.781   3.047  41.432  1.00  0.00     0.012 A 
ATOM      8  C   UNL     1       5.242   4.707  39.634  1.00  0.00     0.016 A 
ATOM      9  C   UNL     1       5.944   4.302  40.813  1.00  0.00     0.002 A 
ENDROOT
BRANCH   6  10
ATOM     10  C   UNL     1       3.607   4.320  37.767  1.00  0.00     0.250 C 
ATOM     11  O   UNL     1       3.371   5.524  37.541  1.00  0.00    -0.269 OA
ATOM     12  N   UNL     1       3.213   3.343  36.853  1.00  0.00    -0.366 N 
ATOM     13  H   UNL     1       3.385   2.352  36.984  1.00  0.00     0.159 HD
ATOM     14  H   UNL     1       2.725   3.604  36.001  1.00  0.00     0.159 HD
ENDBRANCH   6  10
BRANCH   1  15
ATOM     15  C   UNL     1       2.891  -0.549  40.068  1.00  0.00     0.065 A 
ATOM     16  C   UNL     1       1.537  -0.617  40.397  1.00  0.00     0.028 A 
ATOM     17  C   UNL     1       3.570  -1.702  39.672  1.00  0.00     0.028 A 
ATOM     18  C   UNL     1       0.863  -1.836  40.332  1.00  0.00     0.006 A 
ATOM     19  C   UNL     1       2.896  -2.922  39.607  1.00  0.00     0.006 A 
ATOM     20  C   UNL     1       1.542  -2.989  39.938  1.00  0.00    -0.043 A 
BRANCH  20  21
ATOM     21  C   UNL     1       0.810  -4.316  39.869  1.00  0.00     0.033 C 
ATOM     22  C   UNL     1       1.010  -5.146  41.147  1.00  0.00     0.011 C 
ATOM     23  C   UNL     1       1.206  -5.132  38.624  1.00  0.00     0.089 C 
ATOM     24  C   UNL     1       0.303  -6.493  41.023  1.00  0.00     0.016 C 
ATOM     25  N   UNL     1       0.469  -6.396  38.559  1.00  0.00    -0.316 NA
ATOM     26  C   UNL     1       0.711  -7.219  39.743  1.00  0.00     0.081 C 
ATOM     27  H   UNL     1       0.757  -6.909  37.727  1.00  0.00     0.122 HD
ENDBRANCH  20  21
ENDBRANCH   1  15
TORSDOF 3
ENDMDL
MODEL 19
REMARK VINA RESULT:    -8.551      4.979      7.378
REMARK INTER + INTRA:         -10.874
REMARK INTER:                 -10.058
REMARK INTRA:                  -0.816
REMARK UNBOUND:                -0.823
REMARK SMILES NC(=O)c1cccc2cn(-c3ccc([C@@H]4CCCNC4)cc3)nc12
REMARK SMILES IDX 10 1 23 2 8 3 9 4 24 5 4 6 7 7 5 8 6 9 2 10 3 11 1 12 11 15
REMARK SMILES IDX 12 16 22 17 13 18 21 19 14 20 15 21 16 22 20 23 17 24 19 25
REMARK SMILES IDX 18 26
REMARK H PARENT 1 13 1 14 19 27
ROOT
ATOM      1  N   UNL     1       3.743  -1.428  39.827  1.00  0.00    -0.240 N 
ATOM      2  N   UNL     1       2.424  -1.691  39.906  1.00  0.00    -0.167 NA
ATOM      3  C   UNL     1       3.518  -3.173  38.576  1.00  0.00     0.021 A 
ATOM      4  C   UNL     1       4.451  -2.288  39.040  1.00  0.00     0.123 A 
ATOM      5  C   UNL     1       2.247  -2.779  39.134  1.00  0.00     0.105 A 
ATOM      6  C   UNL     1       1.079  -3.505  38.837  1.00  0.00     0.067 A 
ATOM      7  C   UNL     1       3.769  -4.244  37.729  1.00  0.00     0.012 A 
ATOM      8  C   UNL     1       1.301  -4.602  37.976  1.00  0.00     0.016 A 
ATOM      9  C   UNL     1       2.585  -4.952  37.448  1.00  0.00     0.002 A 
ENDROOT
BRANCH   6  10
ATOM     10  C   UNL     1      -0.226  -3.168  39.361  1.00  0.00     0.250 C 
ATOM     11  O   UNL     1      -1.084  -4.042  39.597  1.00  0.00    -0.269 OA
ATOM     12  N   UNL     1      -0.502  -1.825  39.617  1.00  0.00    -0.366 N 
ATOM     13  H   UNL     1       0.160  -1.076  39.448  1.00  0.00     0.159 HD
ATOM     14  H   UNL     1      -1.405  -1.548  39.990  1.00  0.00     0.159 HD
ENDBRANCH   6  10
BRANCH   1  15
ATOM     15  C   UNL     1       4.276  -0.353  40.514  1.00  0.00     0.065 A 
ATOM     16  C   UNL     1       4.306   0.909  39.920  1.00  0.00     0.028 A 
ATOM     17  C   UNL     1       4.783  -0.529  41.802  1.00  0.00     0.028 A 
ATOM     18  C   UNL     1       4.843   1.993  40.613  1.00  0.00     0.006 A 
ATOM     19  C   UNL     1       5.320   0.555  42.495  1.00  0.00     0.006 A 
ATOM     20  C   UNL     1       5.351   1.817  41.900  1.00  0.00    -0.043 A 
BRANCH  20  21
ATOM     21  C   UNL     1       5.937   2.997  42.654  1.00  0.00     0.033 C 
ATOM     22  C   UNL     1       6.719   3.938  41.722  1.00  0.00     0.011 C 
ATOM     23  C   UNL     1       6.817   2.548  43.836  1.00  0.00     0.089 C 
ATOM     24  C   UNL     1       7.335   5.083  42.521  1.00  0.00     0.016 C 
ATOM     25  N   UNL     1       7.350   3.700  44.568  1.00  0.00    -0.316 NA
ATOM     26  C   UNL     1       8.152   4.562  43.701  1.00  0.00     0.081 C 
ATOM     27  H   UNL     1       7.928   3.367  45.340  1.00  0.00     0.122 HD
ENDBRANCH  20  21
ENDBRANCH   1  15
TORSDOF 3
ENDMDL
MODEL 20
REMARK VINA RESULT:    -8.498      5.861      7.957
REMARK INTER + INTRA:         -10.811
REMARK INTER:                 -10.163
REMARK INTRA:                  -0.649
REMARK UNBOUND:                -0.823
REMARK SMILES NC(=O)c1cccc2cn(-c3ccc([C@@H]4CCCNC4)cc3)nc12
REMARK SMILES IDX 10 1 23 2 8 3 9 4 24 5 4 6 7 7 5 8 6 9 2 10 3 11 1 12 11 15
REMARK SMILES IDX 12 16 22 17 13 18 21 19 14 20 15 21 16 22 20 23 17 24 19 25
REMARK SMILES IDX 18 26
REMARK H PARENT 1 13 1 14 19 27
ROOT
ATOM      1  N   UNL     1       2.431  -2.009  40.730  1.00  0.00    -0.240 N 
ATOM      2  N   UNL     1       2.568  -3.349  40.755  1.00  0.00    -0.167 NA
ATOM      3  C   UNL     1       0.599  -2.702  39.825  1.00  0.00     0.021 A 
ATOM      4  C   UNL     1       1.265  -1.563  40.180  1.00  0.00     0.123 A 
ATOM      5  C   UNL     1       1.437  -3.816  40.195  1.00  0.00     0.105 A 
ATOM      6  C   UNL     1       1.019  -5.138  39.954  1.00  0.00     0.067 A 
ATOM      7  C   UNL     1      -0.650  -2.754  39.220  1.00  0.00     0.012 A 
ATOM      8  C   UNL     1      -0.249  -5.225  39.340  1.00  0.00     0.016 A 
ATOM      9  C   UNL     1      -1.043  -4.087  38.990  1.00  0.00     0.002 A 
ENDROOT
BRANCH   6  10
ATOM     10  C   UNL     1       1.808  -6.301  40.299  1.00  0.00     0.250 C 
ATOM     11  O   UNL     1       2.082  -6.579  41.484  1.00  0.00    -0.269 OA
ATOM     12  N   UNL     1       2.247  -7.126  39.263  1.00  0.00    -0.366 N 
ATOM     13  H   UNL     1       2.047  -6.949  38.285  1.00  0.00     0.159 HD
ATOM     14  H   UNL     1       2.797  -7.954  39.465  1.00  0.00     0.159 HD
ENDBRANCH   6  10
BRANCH   1  15
ATOM     15  C   UNL     1       3.432  -1.201  41.238  1.00  0.00     0.065 A 
ATOM     16  C   UNL     1       4.658  -1.757  41.605  1.00  0.00     0.028 A 
ATOM     17  C   UNL     1       3.216   0.170  41.383  1.00  0.00     0.028 A 
ATOM     18  C   UNL     1       5.667  -0.942  42.118  1.00  0.00     0.006 A 
ATOM     19  C   UNL     1       4.226   0.985  41.895  1.00  0.00     0.006 A 
ATOM     20  C   UNL     1       5.452   0.428  42.263  1.00  0.00    -0.043 A 
BRANCH  20  21
ATOM     21  C   UNL     1       6.549   1.315  42.822  1.00  0.00     0.033 C 
ATOM     22  C   UNL     1       6.160   2.802  42.778  1.00  0.00     0.011 C 
ATOM     23  C   UNL     1       7.897   1.085  42.112  1.00  0.00     0.089 C 
ATOM     24  C   UNL     1       7.305   3.666  43.300  1.00  0.00     0.016 C 
ATOM     25  N   UNL     1       8.950   1.928  42.683  1.00  0.00    -0.316 NA
ATOM     26  C   UNL     1       8.614   3.348  42.582  1.00  0.00     0.081 C 
ATOM     27  H   UNL     1       9.824   1.753  42.189  1.00  0.00     0.122 HD
ENDBRANCH  20  21
ENDBRANCH   1  15
TORSDOF 3
ENDMDL
