MODEL 1
REMARK VINA RESULT:    -8.808      0.000      0.000
REMARK INTER + INTRA:         -14.377
REMARK INTER:                 -13.185
REMARK INTRA:                  -1.192
REMARK UNBOUND:                -1.192
REMARK SMILES C[C@H]1N[C@@H](N[C@@H](O)N2CCC[C@H]2[C@@H](N)O)S[C@@H]1[C@H]1CCN[C@H](C(C)(C)C(F)(F)F)C1
REMARK SMILES IDX 5 1 4 3 2 4 17 5 3 6 16 7 1 8 18 10 19 11 30 12 20 13 22 14
REMARK SMILES IDX 21 15 23 17 24 18 25 19 26 20 27 21 28 22 29 23 6 24 7 25
REMARK SMILES IDX 8 27 12 28 9 29 11 30 10 31 13 32 15 33 14 35
REMARK H PARENT 5 2 3 9 21 16 7 26 15 34 14 36 14 37
ROOT
ATOM      1  N   UNL     1      -0.041 -10.198  13.778  1.00  0.00    -0.255 NA
ATOM      2  H   UNL     1       0.088 -11.052  13.216  1.00  0.00     0.129 HD
ENDROOT
BRANCH   1   3
ATOM      3  C   UNL     1      -1.010 -10.511  14.712  1.00  0.00     0.185 C 
ATOM      4  C   UNL     1      -2.903 -11.388  15.449  1.00  0.00     0.066 C 
ATOM      5  C   UNL     1      -2.443 -10.880  16.659  1.00  0.00     0.069 C 
ATOM      6  N   UNL     1      -2.080 -11.178  14.361  1.00  0.00    -0.290 NA
ATOM      7  S   UNL     1      -0.918 -10.073  16.381  1.00  0.00    -0.122 SA
ATOM      8  C   UNL     1      -4.175 -12.145  15.242  1.00  0.00     0.025 C 
ATOM      9  H   UNL     1      -1.798 -12.087  13.970  1.00  0.00     0.125 HD
BRANCH   5  10
ATOM     10  C   UNL     1      -2.965 -10.864  18.044  1.00  0.00     0.006 C 
ATOM     11  C   UNL     1      -4.109 -11.572  18.395  1.00  0.00     0.020 C 
ATOM     12  C   UNL     1      -2.289 -10.151  19.029  1.00  0.00     0.024 C 
ATOM     13  C   UNL     1      -4.555 -11.502  19.697  1.00  0.00     0.081 C 
ATOM     14  C   UNL     1      -2.811 -10.156  20.331  1.00  0.00     0.068 C 
ATOM     15  N   UNL     1      -3.937 -10.804  20.660  1.00  0.00    -0.313 NA
ATOM     16  H   UNL     1      -4.605 -10.103  21.010  1.00  0.00     0.122 HD
BRANCH  14  17
ATOM     17  C   UNL     1      -2.076  -9.441  21.491  1.00  0.00     0.076 C 
ATOM     18  C   UNL     1      -1.459  -8.113  21.024  1.00  0.00     0.022 C 
ATOM     19  C   UNL     1      -3.048  -9.179  22.654  1.00  0.00     0.022 C 
BRANCH  17  20
ATOM     20  C   UNL     1      -0.858 -10.376  22.045  1.00  0.00     0.395 C 
ATOM     21  F   UNL     1      -0.869 -10.418  23.376  1.00  0.00    -0.170 F 
ATOM     22  F   UNL     1      -0.930 -11.630  21.616  1.00  0.00    -0.170 F 
ATOM     23  F   UNL     1       0.331  -9.917  21.669  1.00  0.00    -0.170 F 
ENDBRANCH  17  20
ENDBRANCH  14  17
ENDBRANCH   5  10
ENDBRANCH   1   3
BRANCH   1  24
ATOM     24  C   UNL     1      -0.140  -9.148  12.853  1.00  0.00     0.261 C 
BRANCH  24  25
ATOM     25  O   UNL     1      -1.181  -8.913  12.258  1.00  0.00    -0.365 OA
ATOM     26  H   UNL     1      -1.496  -8.003  12.491  1.00  0.00     0.214 HD
ENDBRANCH  24  25
BRANCH  24  27
ATOM     27  N   UNL     1       0.990  -8.384  12.637  1.00  0.00    -0.259 NA
ATOM     28  C   UNL     1       1.352  -7.321  13.590  1.00  0.00     0.104 C 
ATOM     29  C   UNL     1       1.948  -8.494  11.526  1.00  0.00     0.089 C 
ATOM     30  C   UNL     1       2.694  -6.795  13.057  1.00  0.00     0.025 C 
ATOM     31  C   UNL     1       2.729  -7.200  11.602  1.00  0.00     0.017 C 
BRANCH  28  32
ATOM     32  C   UNL     1       0.301  -6.216  13.702  1.00  0.00     0.197 C 
BRANCH  32  33
ATOM     33  O   UNL     1      -0.371  -5.894  12.718  1.00  0.00    -0.377 OA
ATOM     34  H   UNL     1       0.169  -5.311  12.127  1.00  0.00     0.212 HD
ENDBRANCH  32  33
BRANCH  32  35
ATOM     35  N   UNL     1       0.214  -5.595  14.867  1.00  0.00    -0.305 NA
ATOM     36  H   UNL     1       1.093  -5.091  15.054  1.00  0.00     0.121 HD
ATOM     37  H   UNL     1      -0.567  -4.925  14.842  1.00  0.00     0.121 HD
ENDBRANCH  32  35
ENDBRANCH  28  32
ENDBRANCH  24  27
ENDBRANCH   1  24
TORSDOF 10
ENDMDL
MODEL 2
REMARK VINA RESULT:    -8.543      2.277      3.261
REMARK INTER + INTRA:         -13.979
REMARK INTER:                 -12.890
REMARK INTRA:                  -1.090
REMARK UNBOUND:                -1.192
REMARK SMILES C[C@H]1N[C@@H](N[C@@H](O)N2CCC[C@H]2[C@@H](N)O)S[C@@H]1[C@H]1CCN[C@H](C(C)(C)C(F)(F)F)C1
REMARK SMILES IDX 5 1 4 3 2 4 17 5 3 6 16 7 1 8 18 10 19 11 30 12 20 13 22 14
REMARK SMILES IDX 21 15 23 17 24 18 25 19 26 20 27 21 28 22 29 23 6 24 7 25
REMARK SMILES IDX 8 27 12 28 9 29 11 30 10 31 13 32 15 33 14 35
REMARK H PARENT 5 2 3 9 21 16 7 26 15 34 14 36 14 37
ROOT
ATOM      1  N   UNL     1       0.665  -8.088  12.266  1.00  0.00    -0.255 NA
ATOM      2  H   UNL     1       1.612  -7.748  12.487  1.00  0.00     0.129 HD
ENDROOT
BRANCH   1   3
ATOM      3  C   UNL     1       0.112  -8.458  13.477  1.00  0.00     0.185 C 
ATOM      4  C   UNL     1      -0.887  -9.808  14.917  1.00  0.00     0.066 C 
ATOM      5  C   UNL     1      -0.723  -8.714  15.761  1.00  0.00     0.069 C 
ATOM      6  N   UNL     1      -0.405  -9.650  13.634  1.00  0.00    -0.290 NA
ATOM      7  S   UNL     1       0.045  -7.427  14.862  1.00  0.00    -0.122 SA
ATOM      8  C   UNL     1      -1.509 -11.115  15.288  1.00  0.00     0.025 C 
ATOM      9  H   UNL     1       0.320 -10.359  13.456  1.00  0.00     0.125 HD
BRANCH   5  10
ATOM     10  C   UNL     1      -1.069  -8.430  17.172  1.00  0.00     0.006 C 
ATOM     11  C   UNL     1      -0.823  -7.185  17.741  1.00  0.00     0.020 C 
ATOM     12  C   UNL     1      -1.679  -9.412  17.946  1.00  0.00     0.024 C 
ATOM     13  C   UNL     1      -1.150  -6.989  19.065  1.00  0.00     0.081 C 
ATOM     14  C   UNL     1      -1.993  -9.110  19.279  1.00  0.00     0.068 C 
ATOM     15  N   UNL     1      -1.717  -7.925  19.839  1.00  0.00    -0.313 NA
ATOM     16  H   UNL     1      -1.079  -8.098  20.629  1.00  0.00     0.122 HD
BRANCH  14  17
ATOM     17  C   UNL     1      -2.733 -10.131  20.178  1.00  0.00     0.076 C 
ATOM     18  C   UNL     1      -3.718  -9.427  21.125  1.00  0.00     0.022 C 
ATOM     19  C   UNL     1      -3.489 -11.152  19.310  1.00  0.00     0.022 C 
BRANCH  17  20
ATOM     20  C   UNL     1      -1.662 -10.942  21.104  1.00  0.00     0.395 C 
ATOM     21  F   UNL     1      -2.110 -11.047  22.354  1.00  0.00    -0.170 F 
ATOM     22  F   UNL     1      -1.431 -12.176  20.670  1.00  0.00    -0.170 F 
ATOM     23  F   UNL     1      -0.483 -10.332  21.151  1.00  0.00    -0.170 F 
ENDBRANCH  17  20
ENDBRANCH  14  17
ENDBRANCH   5  10
ENDBRANCH   1   3
BRANCH   1  24
ATOM     24  C   UNL     1       0.819  -8.947  11.168  1.00  0.00     0.261 C 
BRANCH  24  25
ATOM     25  O   UNL     1      -0.142  -9.354  10.531  1.00  0.00    -0.365 OA
ATOM     26  H   UNL     1      -0.273 -10.319  10.711  1.00  0.00     0.214 HD
ENDBRANCH  24  25
BRANCH  24  27
ATOM     27  N   UNL     1       2.105  -9.322  10.830  1.00  0.00    -0.259 NA
ATOM     28  C   UNL     1       3.191  -8.328  10.857  1.00  0.00     0.104 C 
ATOM     29  C   UNL     1       2.575 -10.658  10.431  1.00  0.00     0.089 C 
ATOM     30  C   UNL     1       4.447  -9.150  10.527  1.00  0.00     0.025 C 
ATOM     31  C   UNL     1       3.937 -10.389   9.829  1.00  0.00     0.017 C 
BRANCH  28  32
ATOM     32  C   UNL     1       2.985  -7.170   9.879  1.00  0.00     0.197 C 
BRANCH  32  33
ATOM     33  O   UNL     1       3.243  -7.315   8.680  1.00  0.00    -0.377 OA
ATOM     34  H   UNL     1       3.031  -8.242   8.408  1.00  0.00     0.212 HD
ENDBRANCH  32  33
BRANCH  32  35
ATOM     35  N   UNL     1       2.596  -6.016  10.398  1.00  0.00    -0.305 NA
ATOM     36  H   UNL     1       1.715  -6.151  10.913  1.00  0.00     0.121 HD
ATOM     37  H   UNL     1       3.321  -5.667  11.041  1.00  0.00     0.121 HD
ENDBRANCH  32  35
ENDBRANCH  28  32
ENDBRANCH  24  27
ENDBRANCH   1  24
TORSDOF 10
ENDMDL
MODEL 3
REMARK VINA RESULT:    -8.478      1.743      2.971
REMARK INTER + INTRA:         -13.883
REMARK INTER:                 -13.021
REMARK INTRA:                  -0.863
REMARK UNBOUND:                -1.192
REMARK SMILES C[C@H]1N[C@@H](N[C@@H](O)N2CCC[C@H]2[C@@H](N)O)S[C@@H]1[C@H]1CCN[C@H](C(C)(C)C(F)(F)F)C1
REMARK SMILES IDX 5 1 4 3 2 4 17 5 3 6 16 7 1 8 18 10 19 11 30 12 20 13 22 14
REMARK SMILES IDX 21 15 23 17 24 18 25 19 26 20 27 21 28 22 29 23 6 24 7 25
REMARK SMILES IDX 8 27 12 28 9 29 11 30 10 31 13 32 15 33 14 35
REMARK H PARENT 5 2 3 9 21 16 7 26 15 34 14 36 14 37
ROOT
ATOM      1  N   UNL     1       0.364  -8.681  13.318  1.00  0.00    -0.255 NA
ATOM      2  H   UNL     1      -0.172  -9.156  12.577  1.00  0.00     0.129 HD
ENDROOT
BRANCH   1   3
ATOM      3  C   UNL     1      -0.353  -8.882  14.481  1.00  0.00     0.185 C 
ATOM      4  C   UNL     1      -1.152  -8.371  16.481  1.00  0.00     0.066 C 
ATOM      5  C   UNL     1      -1.759  -9.615  16.343  1.00  0.00     0.069 C 
ATOM      6  N   UNL     1      -0.367  -7.969  15.418  1.00  0.00    -0.290 NA
ATOM      7  S   UNL     1      -1.275 -10.305  14.812  1.00  0.00    -0.122 SA
ATOM      8  C   UNL     1      -1.296  -7.449  17.648  1.00  0.00     0.025 C 
ATOM      9  H   UNL     1      -0.747  -7.093  15.031  1.00  0.00     0.125 HD
BRANCH   5  10
ATOM     10  C   UNL     1      -2.656 -10.432  17.191  1.00  0.00     0.006 C 
ATOM     11  C   UNL     1      -3.422 -11.461  16.654  1.00  0.00     0.020 C 
ATOM     12  C   UNL     1      -2.721 -10.192  18.560  1.00  0.00     0.024 C 
ATOM     13  C   UNL     1      -4.251 -12.173  17.492  1.00  0.00     0.081 C 
ATOM     14  C   UNL     1      -3.581 -10.984  19.335  1.00  0.00     0.068 C 
ATOM     15  N   UNL     1      -4.351 -11.947  18.810  1.00  0.00    -0.313 NA
ATOM     16  H   UNL     1      -5.331 -11.700  19.007  1.00  0.00     0.122 HD
BRANCH  14  17
ATOM     17  C   UNL     1      -3.654 -10.818  20.872  1.00  0.00     0.076 C 
ATOM     18  C   UNL     1      -4.195  -9.431  21.257  1.00  0.00     0.022 C 
ATOM     19  C   UNL     1      -4.550 -11.910  21.482  1.00  0.00     0.022 C 
BRANCH  17  20
ATOM     20  C   UNL     1      -2.165 -10.958  21.524  1.00  0.00     0.395 C 
ATOM     21  F   UNL     1      -1.487 -11.942  20.933  1.00  0.00    -0.170 F 
ATOM     22  F   UNL     1      -1.437  -9.855  21.397  1.00  0.00    -0.170 F 
ATOM     23  F   UNL     1      -2.214 -11.229  22.823  1.00  0.00    -0.170 F 
ENDBRANCH  17  20
ENDBRANCH  14  17
ENDBRANCH   5  10
ENDBRANCH   1   3
BRANCH   1  24
ATOM     24  C   UNL     1       0.694  -7.421  12.797  1.00  0.00     0.261 C 
BRANCH  24  25
ATOM     25  O   UNL     1      -0.008  -6.440  12.994  1.00  0.00    -0.365 OA
ATOM     26  H   UNL     1      -0.424  -6.155  12.142  1.00  0.00     0.214 HD
ENDBRANCH  24  25
BRANCH  24  27
ATOM     27  N   UNL     1       1.850  -7.326  12.047  1.00  0.00    -0.259 NA
ATOM     28  C   UNL     1       1.785  -7.425  10.579  1.00  0.00     0.104 C 
ATOM     29  C   UNL     1       3.222  -7.118  12.536  1.00  0.00     0.089 C 
ATOM     30  C   UNL     1       3.233  -7.171  10.131  1.00  0.00     0.025 C 
ATOM     31  C   UNL     1       4.082  -7.475  11.344  1.00  0.00     0.017 C 
BRANCH  28  32
ATOM     32  C   UNL     1       1.253  -8.770  10.080  1.00  0.00     0.197 C 
BRANCH  32  33
ATOM     33  O   UNL     1       0.079  -9.090  10.287  1.00  0.00    -0.377 OA
ATOM     34  H   UNL     1      -0.408  -9.128   9.426  1.00  0.00     0.212 HD
ENDBRANCH  32  33
BRANCH  32  35
ATOM     35  N   UNL     1       2.127  -9.574   9.496  1.00  0.00    -0.305 NA
ATOM     36  H   UNL     1       1.669 -10.076   8.723  1.00  0.00     0.121 HD
ATOM     37  H   UNL     1       2.913  -9.019   9.128  1.00  0.00     0.121 HD
ENDBRANCH  32  35
ENDBRANCH  28  32
ENDBRANCH  24  27
ENDBRANCH   1  24
TORSDOF 10
ENDMDL
MODEL 4
REMARK VINA RESULT:    -7.904      2.339      3.494
REMARK INTER + INTRA:         -13.024
REMARK INTER:                 -11.697
REMARK INTRA:                  -1.327
REMARK UNBOUND:                -1.192
REMARK SMILES C[C@H]1N[C@@H](N[C@@H](O)N2CCC[C@H]2[C@@H](N)O)S[C@@H]1[C@H]1CCN[C@H](C(C)(C)C(F)(F)F)C1
REMARK SMILES IDX 5 1 4 3 2 4 17 5 3 6 16 7 1 8 18 10 19 11 30 12 20 13 22 14
REMARK SMILES IDX 21 15 23 17 24 18 25 19 26 20 27 21 28 22 29 23 6 24 7 25
REMARK SMILES IDX 8 27 12 28 9 29 11 30 10 31 13 32 15 33 14 35
REMARK H PARENT 5 2 3 9 21 16 7 26 15 34 14 36 14 37
ROOT
ATOM      1  N   UNL     1       1.322  -6.636  14.407  1.00  0.00    -0.255 NA
ATOM      2  H   UNL     1       2.213  -7.148  14.487  1.00  0.00     0.129 HD
ENDROOT
BRANCH   1   3
ATOM      3  C   UNL     1       0.468  -7.233  15.315  1.00  0.00     0.185 C 
ATOM      4  C   UNL     1      -0.963  -8.751  16.051  1.00  0.00     0.066 C 
ATOM      5  C   UNL     1      -0.899  -7.973  17.203  1.00  0.00     0.069 C 
ATOM      6  N   UNL     1      -0.181  -8.324  14.997  1.00  0.00    -0.290 NA
ATOM      7  S   UNL     1       0.177  -6.628  16.906  1.00  0.00    -0.122 SA
ATOM      8  C   UNL     1      -1.775  -9.994  15.876  1.00  0.00     0.025 C 
ATOM      9  H   UNL     1       0.496  -9.062  14.757  1.00  0.00     0.125 HD
BRANCH   5  10
ATOM     10  C   UNL     1      -1.537  -8.038  18.536  1.00  0.00     0.006 C 
ATOM     11  C   UNL     1      -1.920  -6.885  19.213  1.00  0.00     0.020 C 
ATOM     12  C   UNL     1      -1.789  -9.275  19.123  1.00  0.00     0.024 C 
ATOM     13  C   UNL     1      -2.492  -7.011  20.459  1.00  0.00     0.081 C 
ATOM     14  C   UNL     1      -2.395  -9.301  20.387  1.00  0.00     0.068 C 
ATOM     15  N   UNL     1      -2.725  -8.188  21.057  1.00  0.00    -0.313 NA
ATOM     16  H   UNL     1      -2.198  -8.194  21.942  1.00  0.00     0.122 HD
BRANCH  14  17
ATOM     17  C   UNL     1      -2.766 -10.640  21.070  1.00  0.00     0.076 C 
ATOM     18  C   UNL     1      -1.650 -11.683  20.891  1.00  0.00     0.022 C 
ATOM     19  C   UNL     1      -3.031 -10.416  22.569  1.00  0.00     0.022 C 
BRANCH  17  20
ATOM     20  C   UNL     1      -4.120 -11.256  20.399  1.00  0.00     0.395 C 
ATOM     21  F   UNL     1      -5.104 -10.358  20.425  1.00  0.00    -0.170 F 
ATOM     22  F   UNL     1      -3.954 -11.613  19.130  1.00  0.00    -0.170 F 
ATOM     23  F   UNL     1      -4.546 -12.337  21.042  1.00  0.00    -0.170 F 
ENDBRANCH  17  20
ENDBRANCH  14  17
ENDBRANCH   5  10
ENDBRANCH   1   3
BRANCH   1  24
ATOM     24  C   UNL     1       1.069  -6.529  13.032  1.00  0.00     0.261 C 
BRANCH  24  25
ATOM     25  O   UNL     1       0.079  -5.955  12.604  1.00  0.00    -0.365 OA
ATOM     26  H   UNL     1      -0.508  -6.607  12.143  1.00  0.00     0.214 HD
ENDBRANCH  24  25
BRANCH  24  27
ATOM     27  N   UNL     1       1.987  -7.099  12.171  1.00  0.00    -0.259 NA
ATOM     28  C   UNL     1       1.523  -7.934  11.050  1.00  0.00     0.104 C 
ATOM     29  C   UNL     1       3.452  -6.976  12.211  1.00  0.00     0.089 C 
ATOM     30  C   UNL     1       2.815  -8.279  10.293  1.00  0.00     0.025 C 
ATOM     31  C   UNL     1       3.927  -8.084  11.297  1.00  0.00     0.017 C 
BRANCH  28  32
ATOM     32  C   UNL     1       0.761  -9.184  11.492  1.00  0.00     0.197 C 
BRANCH  32  33
ATOM     33  O   UNL     1       1.242 -10.305  11.304  1.00  0.00    -0.377 OA
ATOM     34  H   UNL     1       2.139 -10.353  11.721  1.00  0.00     0.212 HD
ENDBRANCH  32  33
BRANCH  32  35
ATOM     35  N   UNL     1      -0.444  -8.995  12.006  1.00  0.00    -0.305 NA
ATOM     36  H   UNL     1      -0.375  -8.943  13.032  1.00  0.00     0.121 HD
ATOM     37  H   UNL     1      -0.837  -8.114  11.643  1.00  0.00     0.121 HD
ENDBRANCH  32  35
ENDBRANCH  28  32
ENDBRANCH  24  27
ENDBRANCH   1  24
TORSDOF 10
ENDMDL
MODEL 5
REMARK VINA RESULT:    -7.889      1.669      2.285
REMARK INTER + INTRA:         -13.000
REMARK INTER:                 -11.539
REMARK INTRA:                  -1.461
REMARK UNBOUND:                -1.192
REMARK SMILES C[C@H]1N[C@@H](N[C@@H](O)N2CCC[C@H]2[C@@H](N)O)S[C@@H]1[C@H]1CCN[C@H](C(C)(C)C(F)(F)F)C1
REMARK SMILES IDX 5 1 4 3 2 4 17 5 3 6 16 7 1 8 18 10 19 11 30 12 20 13 22 14
REMARK SMILES IDX 21 15 23 17 24 18 25 19 26 20 27 21 28 22 29 23 6 24 7 25
REMARK SMILES IDX 8 27 12 28 9 29 11 30 10 31 13 32 15 33 14 35
REMARK H PARENT 5 2 3 9 21 16 7 26 15 34 14 36 14 37
ROOT
ATOM      1  N   UNL     1       0.004  -9.945  14.000  1.00  0.00    -0.255 NA
ATOM      2  H   UNL     1      -0.266 -10.871  13.637  1.00  0.00     0.129 HD
ENDROOT
BRANCH   1   3
ATOM      3  C   UNL     1      -0.704  -9.788  15.177  1.00  0.00     0.185 C 
ATOM      4  C   UNL     1      -1.626  -8.672  16.850  1.00  0.00     0.066 C 
ATOM      5  C   UNL     1      -2.025  -9.950  17.228  1.00  0.00     0.069 C 
ATOM      6  N   UNL     1      -0.887  -8.597  15.687  1.00  0.00    -0.290 NA
ATOM      7  S   UNL     1      -1.398 -11.095  16.067  1.00  0.00    -0.122 SA
ATOM      8  C   UNL     1      -1.946  -7.404  17.573  1.00  0.00     0.025 C 
ATOM      9  H   UNL     1      -1.389  -8.011  15.005  1.00  0.00     0.125 HD
BRANCH   5  10
ATOM     10  C   UNL     1      -2.804 -10.502  18.359  1.00  0.00     0.006 C 
ATOM     11  C   UNL     1      -3.838 -11.409  18.152  1.00  0.00     0.020 C 
ATOM     12  C   UNL     1      -2.486 -10.135  19.663  1.00  0.00     0.024 C 
ATOM     13  C   UNL     1      -4.538 -11.872  19.244  1.00  0.00     0.081 C 
ATOM     14  C   UNL     1      -3.244 -10.676  20.711  1.00  0.00     0.068 C 
ATOM     15  N   UNL     1      -4.268 -11.517  20.508  1.00  0.00    -0.313 NA
ATOM     16  H   UNL     1      -5.114 -11.070  20.890  1.00  0.00     0.122 HD
BRANCH  14  17
ATOM     17  C   UNL     1      -2.904 -10.365  22.189  1.00  0.00     0.076 C 
ATOM     18  C   UNL     1      -3.751 -11.219  23.146  1.00  0.00     0.022 C 
ATOM     19  C   UNL     1      -1.409 -10.618  22.454  1.00  0.00     0.022 C 
BRANCH  17  20
ATOM     20  C   UNL     1      -3.223  -8.799  22.521  1.00  0.00     0.395 C 
ATOM     21  F   UNL     1      -2.151  -8.044  22.286  1.00  0.00    -0.170 F 
ATOM     22  F   UNL     1      -4.214  -8.305  21.788  1.00  0.00    -0.170 F 
ATOM     23  F   UNL     1      -3.568  -8.621  23.791  1.00  0.00    -0.170 F 
ENDBRANCH  17  20
ENDBRANCH  14  17
ENDBRANCH   5  10
ENDBRANCH   1   3
BRANCH   1  24
ATOM     24  C   UNL     1      -0.074  -9.072  12.905  1.00  0.00     0.261 C 
BRANCH  24  25
ATOM     25  O   UNL     1      -1.106  -8.935  12.265  1.00  0.00    -0.365 OA
ATOM     26  H   UNL     1      -1.023  -9.409  11.400  1.00  0.00     0.214 HD
ENDBRANCH  24  25
BRANCH  24  27
ATOM     27  N   UNL     1       1.067  -8.367  12.574  1.00  0.00    -0.259 NA
ATOM     28  C   UNL     1       1.528  -7.266  13.436  1.00  0.00     0.104 C 
ATOM     29  C   UNL     1       1.947  -8.579  11.414  1.00  0.00     0.089 C 
ATOM     30  C   UNL     1       2.850  -6.825  12.790  1.00  0.00     0.025 C 
ATOM     31  C   UNL     1       2.777  -7.315  11.363  1.00  0.00     0.017 C 
BRANCH  28  32
ATOM     32  C   UNL     1       0.526  -6.115  13.546  1.00  0.00     0.197 C 
BRANCH  32  33
ATOM     33  O   UNL     1       0.233  -5.649  14.651  1.00  0.00    -0.377 OA
ATOM     34  H   UNL     1      -0.704  -5.328  14.635  1.00  0.00     0.212 HD
ENDBRANCH  32  33
BRANCH  32  35
ATOM     35  N   UNL     1      -0.044  -5.714  12.421  1.00  0.00    -0.305 NA
ATOM     36  H   UNL     1       0.347  -4.803  12.143  1.00  0.00     0.121 HD
ATOM     37  H   UNL     1       0.136  -6.406  11.679  1.00  0.00     0.121 HD
ENDBRANCH  32  35
ENDBRANCH  28  32
ENDBRANCH  24  27
ENDBRANCH   1  24
TORSDOF 10
ENDMDL
MODEL 6
REMARK VINA RESULT:    -7.849      2.195      3.529
REMARK INTER + INTRA:         -12.941
REMARK INTER:                 -11.776
REMARK INTRA:                  -1.165
REMARK UNBOUND:                -1.192
REMARK SMILES C[C@H]1N[C@@H](N[C@@H](O)N2CCC[C@H]2[C@@H](N)O)S[C@@H]1[C@H]1CCN[C@H](C(C)(C)C(F)(F)F)C1
REMARK SMILES IDX 5 1 4 3 2 4 17 5 3 6 16 7 1 8 18 10 19 11 30 12 20 13 22 14
REMARK SMILES IDX 21 15 23 17 24 18 25 19 26 20 27 21 28 22 29 23 6 24 7 25
REMARK SMILES IDX 8 27 12 28 9 29 11 30 10 31 13 32 15 33 14 35
REMARK H PARENT 5 2 3 9 21 16 7 26 15 34 14 36 14 37
ROOT
ATOM      1  N   UNL     1       0.966  -7.014  12.741  1.00  0.00    -0.255 NA
ATOM      2  H   UNL     1       0.743  -6.009  12.748  1.00  0.00     0.129 HD
ENDROOT
BRANCH   1   3
ATOM      3  C   UNL     1       0.341  -7.541  13.855  1.00  0.00     0.185 C 
ATOM      4  C   UNL     1      -0.618  -9.109  15.087  1.00  0.00     0.066 C 
ATOM      5  C   UNL     1      -0.689  -8.070  16.009  1.00  0.00     0.069 C 
ATOM      6  N   UNL     1      -0.028  -8.796  13.879  1.00  0.00    -0.290 NA
ATOM      7  S   UNL     1      -0.006  -6.634  15.284  1.00  0.00    -0.122 SA
ATOM      8  C   UNL     1      -1.097 -10.508  15.303  1.00  0.00     0.025 C 
ATOM      9  H   UNL     1       0.799  -9.394  13.742  1.00  0.00     0.125 HD
BRANCH   5  10
ATOM     10  C   UNL     1      -1.216  -7.938  17.386  1.00  0.00     0.006 C 
ATOM     11  C   UNL     1      -1.305  -6.700  18.012  1.00  0.00     0.020 C 
ATOM     12  C   UNL     1      -1.662  -9.067  18.066  1.00  0.00     0.024 C 
ATOM     13  C   UNL     1      -1.787  -6.646  19.302  1.00  0.00     0.081 C 
ATOM     14  C   UNL     1      -2.155  -8.908  19.369  1.00  0.00     0.068 C 
ATOM     15  N   UNL     1      -2.200  -7.720  19.988  1.00  0.00    -0.313 NA
ATOM     16  H   UNL     1      -1.615  -7.790  20.833  1.00  0.00     0.122 HD
BRANCH  14  17
ATOM     17  C   UNL     1      -2.730 -10.108  20.161  1.00  0.00     0.076 C 
ATOM     18  C   UNL     1      -3.875  -9.667  21.087  1.00  0.00     0.022 C 
ATOM     19  C   UNL     1      -3.236 -11.190  19.190  1.00  0.00     0.022 C 
BRANCH  17  20
ATOM     20  C   UNL     1      -1.570 -10.768  21.100  1.00  0.00     0.395 C 
ATOM     21  F   UNL     1      -1.901 -10.672  22.387  1.00  0.00    -0.170 F 
ATOM     22  F   UNL     1      -1.367 -12.055  20.846  1.00  0.00    -0.170 F 
ATOM     23  F   UNL     1      -0.398 -10.163  20.941  1.00  0.00    -0.170 F 
ENDBRANCH  17  20
ENDBRANCH  14  17
ENDBRANCH   5  10
ENDBRANCH   1   3
BRANCH   1  24
ATOM     24  C   UNL     1       2.344  -7.095  12.493  1.00  0.00     0.261 C 
BRANCH  24  25
ATOM     25  O   UNL     1       3.166  -7.001  13.392  1.00  0.00    -0.365 OA
ATOM     26  H   UNL     1       2.765  -6.513  14.155  1.00  0.00     0.214 HD
ENDBRANCH  24  25
BRANCH  24  27
ATOM     27  N   UNL     1       2.743  -7.284  11.184  1.00  0.00    -0.259 NA
ATOM     28  C   UNL     1       1.780  -7.775  10.185  1.00  0.00     0.104 C 
ATOM     29  C   UNL     1       4.075  -7.041  10.608  1.00  0.00     0.089 C 
ATOM     30  C   UNL     1       2.572  -7.748   8.868  1.00  0.00     0.025 C 
ATOM     31  C   UNL     1       4.026  -7.765   9.280  1.00  0.00     0.017 C 
BRANCH  28  32
ATOM     32  C   UNL     1       1.229  -9.167  10.499  1.00  0.00     0.197 C 
BRANCH  32  33
ATOM     33  O   UNL     1       1.987 -10.140  10.545  1.00  0.00    -0.377 OA
ATOM     34  H   UNL     1       1.595 -10.835  11.131  1.00  0.00     0.212 HD
ENDBRANCH  32  33
BRANCH  32  35
ATOM     35  N   UNL     1      -0.083  -9.269  10.639  1.00  0.00    -0.305 NA
ATOM     36  H   UNL     1      -0.516  -9.419   9.717  1.00  0.00     0.121 HD
ATOM     37  H   UNL     1      -0.303 -10.065  11.254  1.00  0.00     0.121 HD
ENDBRANCH  32  35
ENDBRANCH  28  32
ENDBRANCH  24  27
ENDBRANCH   1  24
TORSDOF 10
ENDMDL
MODEL 7
REMARK VINA RESULT:    -7.686      1.760      2.376
REMARK INTER + INTRA:         -12.697
REMARK INTER:                 -11.443
REMARK INTRA:                  -1.254
REMARK UNBOUND:                -1.192
REMARK SMILES C[C@H]1N[C@@H](N[C@@H](O)N2CCC[C@H]2[C@@H](N)O)S[C@@H]1[C@H]1CCN[C@H](C(C)(C)C(F)(F)F)C1
REMARK SMILES IDX 5 1 4 3 2 4 17 5 3 6 16 7 1 8 18 10 19 11 30 12 20 13 22 14
REMARK SMILES IDX 21 15 23 17 24 18 25 19 26 20 27 21 28 22 29 23 6 24 7 25
REMARK SMILES IDX 8 27 12 28 9 29 11 30 10 31 13 32 15 33 14 35
REMARK H PARENT 5 2 3 9 21 16 7 26 15 34 14 36 14 37
ROOT
ATOM      1  N   UNL     1      -0.068 -10.133  13.812  1.00  0.00    -0.255 NA
ATOM      2  H   UNL     1      -0.309 -11.025  13.355  1.00  0.00     0.129 HD
ENDROOT
BRANCH   1   3
ATOM      3  C   UNL     1      -0.794 -10.110  14.988  1.00  0.00     0.185 C 
ATOM      4  C   UNL     1      -2.293 -10.814  16.455  1.00  0.00     0.066 C 
ATOM      5  C   UNL     1      -1.814  -9.726  17.177  1.00  0.00     0.069 C 
ATOM      6  N   UNL     1      -1.702 -11.022  15.225  1.00  0.00    -0.290 NA
ATOM      7  S   UNL     1      -0.589  -8.922  16.224  1.00  0.00    -0.122 SA
ATOM      8  C   UNL     1      -3.353 -11.767  16.905  1.00  0.00     0.025 C 
ATOM      9  H   UNL     1      -1.259 -11.951  15.215  1.00  0.00     0.125 HD
BRANCH   5  10
ATOM     10  C   UNL     1      -2.131  -9.134  18.495  1.00  0.00     0.006 C 
ATOM     11  C   UNL     1      -2.112  -7.758  18.695  1.00  0.00     0.020 C 
ATOM     12  C   UNL     1      -2.485  -9.960  19.557  1.00  0.00     0.024 C 
ATOM     13  C   UNL     1      -2.398  -7.269  19.951  1.00  0.00     0.081 C 
ATOM     14  C   UNL     1      -2.779  -9.367  20.794  1.00  0.00     0.068 C 
ATOM     15  N   UNL     1      -2.719  -8.044  20.997  1.00  0.00    -0.313 NA
ATOM     16  H   UNL     1      -2.016  -7.876  21.731  1.00  0.00     0.122 HD
BRANCH  14  17
ATOM     17  C   UNL     1      -3.244 -10.219  22.000  1.00  0.00     0.076 C 
ATOM     18  C   UNL     1      -2.163 -11.229  22.418  1.00  0.00     0.022 C 
ATOM     19  C   UNL     1      -3.590  -9.308  23.191  1.00  0.00     0.022 C 
BRANCH  17  20
ATOM     20  C   UNL     1      -4.579 -11.070  21.604  1.00  0.00     0.395 C 
ATOM     21  F   UNL     1      -4.244 -12.259  21.105  1.00  0.00    -0.170 F 
ATOM     22  F   UNL     1      -5.377 -11.295  22.641  1.00  0.00    -0.170 F 
ATOM     23  F   UNL     1      -5.314 -10.445  20.691  1.00  0.00    -0.170 F 
ENDBRANCH  17  20
ENDBRANCH  14  17
ENDBRANCH   5  10
ENDBRANCH   1   3
BRANCH   1  24
ATOM     24  C   UNL     1      -0.154  -9.158  12.808  1.00  0.00     0.261 C 
BRANCH  24  25
ATOM     25  O   UNL     1      -1.198  -8.941  12.210  1.00  0.00    -0.365 OA
ATOM     26  H   UNL     1      -1.965  -9.185  12.787  1.00  0.00     0.214 HD
ENDBRANCH  24  25
BRANCH  24  27
ATOM     27  N   UNL     1       0.993  -8.444  12.515  1.00  0.00    -0.259 NA
ATOM     28  C   UNL     1       1.436  -7.365  13.413  1.00  0.00     0.104 C 
ATOM     29  C   UNL     1       1.895  -8.628  11.368  1.00  0.00     0.089 C 
ATOM     30  C   UNL     1       2.771  -6.908  12.804  1.00  0.00     0.025 C 
ATOM     31  C   UNL     1       2.725  -7.363  11.364  1.00  0.00     0.017 C 
BRANCH  28  32
ATOM     32  C   UNL     1       0.431  -6.217  13.531  1.00  0.00     0.197 C 
BRANCH  32  33
ATOM     33  O   UNL     1      -0.210  -5.848  12.544  1.00  0.00    -0.377 OA
ATOM     34  H   UNL     1      -1.171  -5.797  12.775  1.00  0.00     0.212 HD
ENDBRANCH  32  33
BRANCH  32  35
ATOM     35  N   UNL     1       0.353  -5.615  14.707  1.00  0.00    -0.305 NA
ATOM     36  H   UNL     1      -0.127  -4.711  14.599  1.00  0.00     0.121 HD
ATOM     37  H   UNL     1      -0.176  -6.209  15.363  1.00  0.00     0.121 HD
ENDBRANCH  32  35
ENDBRANCH  28  32
ENDBRANCH  24  27
ENDBRANCH   1  24
TORSDOF 10
ENDMDL
MODEL 8
REMARK VINA RESULT:    -7.649      1.540      2.166
REMARK INTER + INTRA:         -12.642
REMARK INTER:                 -11.465
REMARK INTRA:                  -1.178
REMARK UNBOUND:                -1.192
REMARK SMILES C[C@H]1N[C@@H](N[C@@H](O)N2CCC[C@H]2[C@@H](N)O)S[C@@H]1[C@H]1CCN[C@H](C(C)(C)C(F)(F)F)C1
REMARK SMILES IDX 5 1 4 3 2 4 17 5 3 6 16 7 1 8 18 10 19 11 30 12 20 13 22 14
REMARK SMILES IDX 21 15 23 17 24 18 25 19 26 20 27 21 28 22 29 23 6 24 7 25
REMARK SMILES IDX 8 27 12 28 9 29 11 30 10 31 13 32 15 33 14 35
REMARK H PARENT 5 2 3 9 21 16 7 26 15 34 14 36 14 37
ROOT
ATOM      1  N   UNL     1       0.589  -6.841  14.586  1.00  0.00    -0.255 NA
ATOM      2  H   UNL     1       1.577  -7.022  14.812  1.00  0.00     0.129 HD
ENDROOT
BRANCH   1   3
ATOM      3  C   UNL     1      -0.131  -7.799  15.274  1.00  0.00     0.185 C 
ATOM      4  C   UNL     1      -1.071  -9.774  15.604  1.00  0.00     0.066 C 
ATOM      5  C   UNL     1      -1.408  -9.195  16.824  1.00  0.00     0.069 C 
ATOM      6  N   UNL     1      -0.345  -8.976  14.744  1.00  0.00    -0.290 NA
ATOM      7  S   UNL     1      -0.800  -7.557  16.848  1.00  0.00    -0.122 SA
ATOM      8  C   UNL     1      -1.406 -11.165  15.172  1.00  0.00     0.025 C 
ATOM      9  H   UNL     1       0.559  -9.427  14.546  1.00  0.00     0.125 HD
BRANCH   5  10
ATOM     10  C   UNL     1      -2.152  -9.651  18.019  1.00  0.00     0.006 C 
ATOM     11  C   UNL     1      -3.254 -10.492  17.910  1.00  0.00     0.020 C 
ATOM     12  C   UNL     1      -1.732  -9.257  19.286  1.00  0.00     0.024 C 
ATOM     13  C   UNL     1      -3.915 -10.865  19.059  1.00  0.00     0.081 C 
ATOM     14  C   UNL     1      -2.460  -9.706  20.398  1.00  0.00     0.068 C 
ATOM     15  N   UNL     1      -3.547 -10.482  20.289  1.00  0.00    -0.313 NA
ATOM     16  H   UNL     1      -4.337  -9.965  20.701  1.00  0.00     0.122 HD
BRANCH  14  17
ATOM     17  C   UNL     1      -2.011  -9.363  21.840  1.00  0.00     0.076 C 
ATOM     18  C   UNL     1      -0.908  -8.292  21.840  1.00  0.00     0.022 C 
ATOM     19  C   UNL     1      -3.212  -8.871  22.666  1.00  0.00     0.022 C 
BRANCH  17  20
ATOM     20  C   UNL     1      -1.401 -10.690  22.568  1.00  0.00     0.395 C 
ATOM     21  F   UNL     1      -2.342 -11.306  23.282  1.00  0.00    -0.170 F 
ATOM     22  F   UNL     1      -0.922 -11.581  21.707  1.00  0.00    -0.170 F 
ATOM     23  F   UNL     1      -0.404 -10.390  23.392  1.00  0.00    -0.170 F 
ENDBRANCH  17  20
ENDBRANCH  14  17
ENDBRANCH   5  10
ENDBRANCH   1   3
BRANCH   1  24
ATOM     24  C   UNL     1       0.545  -6.662  13.196  1.00  0.00     0.261 C 
BRANCH  24  25
ATOM     25  O   UNL     1      -0.325  -5.990  12.661  1.00  0.00    -0.365 OA
ATOM     26  H   UNL     1      -0.855  -5.523  13.356  1.00  0.00     0.214 HD
ENDBRANCH  24  25
BRANCH  24  27
ATOM     27  N   UNL     1       1.528  -7.277  12.445  1.00  0.00    -0.259 NA
ATOM     28  C   UNL     1       2.877  -6.691  12.378  1.00  0.00     0.104 C 
ATOM     29  C   UNL     1       1.415  -8.518  11.663  1.00  0.00     0.089 C 
ATOM     30  C   UNL     1       3.677  -7.709  11.550  1.00  0.00     0.025 C 
ATOM     31  C   UNL     1       2.642  -8.493  10.778  1.00  0.00     0.017 C 
BRANCH  28  32
ATOM     32  C   UNL     1       2.905  -5.292  11.758  1.00  0.00     0.197 C 
BRANCH  32  33
ATOM     33  O   UNL     1       2.900  -5.156  10.531  1.00  0.00    -0.377 OA
ATOM     34  H   UNL     1       3.255  -5.977  10.107  1.00  0.00     0.212 HD
ENDBRANCH  32  33
BRANCH  32  35
ATOM     35  N   UNL     1       3.008  -4.273  12.595  1.00  0.00    -0.305 NA
ATOM     36  H   UNL     1       2.457  -3.480  12.240  1.00  0.00     0.121 HD
ATOM     37  H   UNL     1       2.652  -4.552  13.521  1.00  0.00     0.121 HD
ENDBRANCH  32  35
ENDBRANCH  28  32
ENDBRANCH  24  27
ENDBRANCH   1  24
TORSDOF 10
ENDMDL
MODEL 9
REMARK VINA RESULT:    -7.430      1.703      2.698
REMARK INTER + INTRA:         -12.313
REMARK INTER:                 -11.103
REMARK INTRA:                  -1.210
REMARK UNBOUND:                -1.192
REMARK SMILES C[C@H]1N[C@@H](N[C@@H](O)N2CCC[C@H]2[C@@H](N)O)S[C@@H]1[C@H]1CCN[C@H](C(C)(C)C(F)(F)F)C1
REMARK SMILES IDX 5 1 4 3 2 4 17 5 3 6 16 7 1 8 18 10 19 11 30 12 20 13 22 14
REMARK SMILES IDX 21 15 23 17 24 18 25 19 26 20 27 21 28 22 29 23 6 24 7 25
REMARK SMILES IDX 8 27 12 28 9 29 11 30 10 31 13 32 15 33 14 35
REMARK H PARENT 5 2 3 9 21 16 7 26 15 34 14 36 14 37
ROOT
ATOM      1  N   UNL     1       0.682  -7.440  15.561  1.00  0.00    -0.255 NA
ATOM      2  H   UNL     1       1.600  -7.899  15.481  1.00  0.00     0.129 HD
ENDROOT
BRANCH   1   3
ATOM      3  C   UNL     1      -0.174  -8.404  16.059  1.00  0.00     0.185 C 
ATOM      4  C   UNL     1      -1.311 -10.302  16.049  1.00  0.00     0.066 C 
ATOM      5  C   UNL     1      -1.690  -9.858  17.311  1.00  0.00     0.069 C 
ATOM      6  N   UNL     1      -0.449  -9.473  15.358  1.00  0.00    -0.290 NA
ATOM      7  S   UNL     1      -0.942  -8.306  17.604  1.00  0.00    -0.122 SA
ATOM      8  C   UNL     1      -1.733 -11.583  15.407  1.00  0.00     0.025 C 
ATOM      9  H   UNL     1       0.424  -9.983  15.161  1.00  0.00     0.125 HD
BRANCH   5  10
ATOM     10  C   UNL     1      -2.565 -10.390  18.379  1.00  0.00     0.006 C 
ATOM     11  C   UNL     1      -3.632 -11.234  18.089  1.00  0.00     0.020 C 
ATOM     12  C   UNL     1      -2.308 -10.068  19.709  1.00  0.00     0.024 C 
ATOM     13  C   UNL     1      -4.421 -11.681  19.126  1.00  0.00     0.081 C 
ATOM     14  C   UNL     1      -3.157 -10.589  20.696  1.00  0.00     0.068 C 
ATOM     15  N   UNL     1      -4.210 -11.367  20.412  1.00  0.00    -0.313 NA
ATOM     16  H   UNL     1      -5.052 -10.883  20.753  1.00  0.00     0.122 HD
BRANCH  14  17
ATOM     17  C   UNL     1      -2.891 -10.328  22.199  1.00  0.00     0.076 C 
ATOM     18  C   UNL     1      -3.773 -11.224  23.084  1.00  0.00     0.022 C 
ATOM     19  C   UNL     1      -1.408 -10.576  22.526  1.00  0.00     0.022 C 
BRANCH  17  20
ATOM     20  C   UNL     1      -3.243  -8.779  22.571  1.00  0.00     0.395 C 
ATOM     21  F   UNL     1      -2.218  -7.982  22.275  1.00  0.00    -0.170 F 
ATOM     22  F   UNL     1      -4.299  -8.314  21.912  1.00  0.00    -0.170 F 
ATOM     23  F   UNL     1      -3.509  -8.626  23.863  1.00  0.00    -0.170 F 
ENDBRANCH  17  20
ENDBRANCH  14  17
ENDBRANCH   5  10
ENDBRANCH   1   3
BRANCH   1  24
ATOM     24  C   UNL     1       0.491  -6.761  14.348  1.00  0.00     0.261 C 
BRANCH  24  25
ATOM     25  O   UNL     1      -0.469  -6.027  14.167  1.00  0.00    -0.365 OA
ATOM     26  H   UNL     1      -0.257  -5.377  13.450  1.00  0.00     0.214 HD
ENDBRANCH  24  25
BRANCH  24  27
ATOM     27  N   UNL     1       1.436  -6.952  13.358  1.00  0.00    -0.259 NA
ATOM     28  C   UNL     1       1.019  -7.416  12.024  1.00  0.00     0.104 C 
ATOM     29  C   UNL     1       2.888  -6.736  13.451  1.00  0.00     0.089 C 
ATOM     30  C   UNL     1       2.322  -7.399  11.209  1.00  0.00     0.025 C 
ATOM     31  C   UNL     1       3.431  -7.451  12.233  1.00  0.00     0.017 C 
BRANCH  28  32
ATOM     32  C   UNL     1       0.361  -8.797  12.034  1.00  0.00     0.197 C 
BRANCH  32  33
ATOM     33  O   UNL     1      -0.774  -8.941  12.497  1.00  0.00    -0.377 OA
ATOM     34  H   UNL     1      -0.932  -8.264  13.201  1.00  0.00     0.212 HD
ENDBRANCH  32  33
BRANCH  32  35
ATOM     35  N   UNL     1       1.096  -9.807  11.597  1.00  0.00    -0.305 NA
ATOM     36  H   UNL     1       2.066  -9.492  11.458  1.00  0.00     0.121 HD
ATOM     37  H   UNL     1       1.078 -10.569  12.290  1.00  0.00     0.121 HD
ENDBRANCH  32  35
ENDBRANCH  28  32
ENDBRANCH  24  27
ENDBRANCH   1  24
TORSDOF 10
ENDMDL
MODEL 10
REMARK VINA RESULT:    -7.387      1.723      2.439
REMARK INTER + INTRA:         -12.249
REMARK INTER:                 -10.846
REMARK INTRA:                  -1.404
REMARK UNBOUND:                -1.192
REMARK SMILES C[C@H]1N[C@@H](N[C@@H](O)N2CCC[C@H]2[C@@H](N)O)S[C@@H]1[C@H]1CCN[C@H](C(C)(C)C(F)(F)F)C1
REMARK SMILES IDX 5 1 4 3 2 4 17 5 3 6 16 7 1 8 18 10 19 11 30 12 20 13 22 14
REMARK SMILES IDX 21 15 23 17 24 18 25 19 26 20 27 21 28 22 29 23 6 24 7 25
REMARK SMILES IDX 8 27 12 28 9 29 11 30 10 31 13 32 15 33 14 35
REMARK H PARENT 5 2 3 9 21 16 7 26 15 34 14 36 14 37
ROOT
ATOM      1  N   UNL     1      -0.074  -9.784  14.403  1.00  0.00    -0.255 NA
ATOM      2  H   UNL     1      -0.205 -10.783  14.194  1.00  0.00     0.129 HD
ENDROOT
BRANCH   1   3
ATOM      3  C   UNL     1      -0.743  -9.562  15.592  1.00  0.00     0.185 C 
ATOM      4  C   UNL     1      -2.264  -9.926  17.156  1.00  0.00     0.066 C 
ATOM      5  C   UNL     1      -1.613  -8.858  17.766  1.00  0.00     0.069 C 
ATOM      6  N   UNL     1      -1.757 -10.315  15.933  1.00  0.00    -0.290 NA
ATOM      7  S   UNL     1      -0.328  -8.315  16.713  1.00  0.00    -0.122 SA
ATOM      8  C   UNL     1      -3.426 -10.680  17.717  1.00  0.00     0.025 C 
ATOM      9  H   UNL     1      -1.445 -11.295  15.993  1.00  0.00     0.125 HD
BRANCH   5  10
ATOM     10  C   UNL     1      -1.794  -8.120  19.036  1.00  0.00     0.006 C 
ATOM     11  C   UNL     1      -2.044  -6.752  19.050  1.00  0.00     0.020 C 
ATOM     12  C   UNL     1      -1.743  -8.804  20.246  1.00  0.00     0.024 C 
ATOM     13  C   UNL     1      -2.184  -6.119  20.265  1.00  0.00     0.081 C 
ATOM     14  C   UNL     1      -1.917  -8.075  21.432  1.00  0.00     0.068 C 
ATOM     15  N   UNL     1      -2.116  -6.750  21.446  1.00  0.00    -0.313 NA
ATOM     16  H   UNL     1      -1.340  -6.328  21.976  1.00  0.00     0.122 HD
BRANCH  14  17
ATOM     17  C   UNL     1      -1.940  -8.780  22.810  1.00  0.00     0.076 C 
ATOM     18  C   UNL     1      -2.713  -7.950  23.847  1.00  0.00     0.022 C 
ATOM     19  C   UNL     1      -2.579 -10.174  22.682  1.00  0.00     0.022 C 
BRANCH  17  20
ATOM     20  C   UNL     1      -0.418  -8.966  23.370  1.00  0.00     0.395 C 
ATOM     21  F   UNL     1      -0.338  -8.577  24.642  1.00  0.00    -0.170 F 
ATOM     22  F   UNL     1       0.003 -10.224  23.320  1.00  0.00    -0.170 F 
ATOM     23  F   UNL     1       0.458  -8.247  22.676  1.00  0.00    -0.170 F 
ENDBRANCH  17  20
ENDBRANCH  14  17
ENDBRANCH   5  10
ENDBRANCH   1   3
BRANCH   1  24
ATOM     24  C   UNL     1      -0.343  -9.107  13.204  1.00  0.00     0.261 C 
BRANCH  24  25
ATOM     25  O   UNL     1      -1.476  -9.019  12.756  1.00  0.00    -0.365 OA
ATOM     26  H   UNL     1      -1.806  -9.920  12.510  1.00  0.00     0.214 HD
ENDBRANCH  24  25
BRANCH  24  27
ATOM     27  N   UNL     1       0.729  -8.541  12.540  1.00  0.00    -0.259 NA
ATOM     28  C   UNL     1       1.526  -7.490  13.194  1.00  0.00     0.104 C 
ATOM     29  C   UNL     1       1.223  -8.865  11.193  1.00  0.00     0.089 C 
ATOM     30  C   UNL     1       2.655  -7.210  12.190  1.00  0.00     0.025 C 
ATOM     31  C   UNL     1       2.135  -7.705  10.861  1.00  0.00     0.017 C 
BRANCH  28  32
ATOM     32  C   UNL     1       0.723  -6.231  13.526  1.00  0.00     0.197 C 
BRANCH  32  33
ATOM     33  O   UNL     1       0.947  -5.607  14.568  1.00  0.00    -0.377 OA
ATOM     34  H   UNL     1       0.217  -4.958  14.727  1.00  0.00     0.212 HD
ENDBRANCH  32  33
BRANCH  32  35
ATOM     35  N   UNL     1      -0.248  -5.907  12.688  1.00  0.00    -0.305 NA
ATOM     36  H   UNL     1       0.034  -5.084  12.137  1.00  0.00     0.121 HD
ATOM     37  H   UNL     1      -0.433  -6.698  12.054  1.00  0.00     0.121 HD
ENDBRANCH  32  35
ENDBRANCH  28  32
ENDBRANCH  24  27
ENDBRANCH   1  24
TORSDOF 10
ENDMDL
MODEL 11
REMARK VINA RESULT:    -7.355      1.782      2.309
REMARK INTER + INTRA:         -12.201
REMARK INTER:                 -10.944
REMARK INTRA:                  -1.257
REMARK UNBOUND:                -1.192
REMARK SMILES C[C@H]1N[C@@H](N[C@@H](O)N2CCC[C@H]2[C@@H](N)O)S[C@@H]1[C@H]1CCN[C@H](C(C)(C)C(F)(F)F)C1
REMARK SMILES IDX 5 1 4 3 2 4 17 5 3 6 16 7 1 8 18 10 19 11 30 12 20 13 22 14
REMARK SMILES IDX 21 15 23 17 24 18 25 19 26 20 27 21 28 22 29 23 6 24 7 25
REMARK SMILES IDX 8 27 12 28 9 29 11 30 10 31 13 32 15 33 14 35
REMARK H PARENT 5 2 3 9 21 16 7 26 15 34 14 36 14 37
ROOT
ATOM      1  N   UNL     1       0.357  -8.161  14.135  1.00  0.00    -0.255 NA
ATOM      2  H   UNL     1       0.136  -8.311  13.140  1.00  0.00     0.129 HD
ENDROOT
BRANCH   1   3
ATOM      3  C   UNL     1      -0.562  -8.918  14.836  1.00  0.00     0.185 C 
ATOM      4  C   UNL     1      -2.154 -10.430  15.106  1.00  0.00     0.066 C 
ATOM      5  C   UNL     1      -2.011 -10.062  16.440  1.00  0.00     0.069 C 
ATOM      6  N   UNL     1      -1.325  -9.781  14.215  1.00  0.00    -0.290 NA
ATOM      7  S   UNL     1      -0.794  -8.813  16.545  1.00  0.00    -0.122 SA
ATOM      8  C   UNL     1      -3.096 -11.464  14.578  1.00  0.00     0.025 C 
ATOM      9  H   UNL     1      -0.732 -10.474  13.738  1.00  0.00     0.125 HD
BRANCH   5  10
ATOM     10  C   UNL     1      -2.659 -10.472  17.706  1.00  0.00     0.006 C 
ATOM     11  C   UNL     1      -3.739 -11.349  17.716  1.00  0.00     0.020 C 
ATOM     12  C   UNL     1      -2.169  -9.999  18.919  1.00  0.00     0.024 C 
ATOM     13  C   UNL     1      -4.311 -11.678  18.925  1.00  0.00     0.081 C 
ATOM     14  C   UNL     1      -2.807 -10.406  20.099  1.00  0.00     0.068 C 
ATOM     15  N   UNL     1      -3.874 -11.217  20.106  1.00  0.00    -0.313 NA
ATOM     16  H   UNL     1      -4.651 -10.701  20.542  1.00  0.00     0.122 HD
BRANCH  14  17
ATOM     17  C   UNL     1      -2.275  -9.973  21.487  1.00  0.00     0.076 C 
ATOM     18  C   UNL     1      -1.928  -8.475  21.507  1.00  0.00     0.022 C 
ATOM     19  C   UNL     1      -3.321 -10.276  22.575  1.00  0.00     0.022 C 
BRANCH  17  20
ATOM     20  C   UNL     1      -0.912 -10.794  21.847  1.00  0.00     0.395 C 
ATOM     21  F   UNL     1       0.160 -10.139  21.402  1.00  0.00    -0.170 F 
ATOM     22  F   UNL     1      -0.743 -10.973  23.152  1.00  0.00    -0.170 F 
ATOM     23  F   UNL     1      -0.900 -12.003  21.297  1.00  0.00    -0.170 F 
ENDBRANCH  17  20
ENDBRANCH  14  17
ENDBRANCH   5  10
ENDBRANCH   1   3
BRANCH   1  24
ATOM     24  C   UNL     1       0.520  -6.776  14.282  1.00  0.00     0.261 C 
BRANCH  24  25
ATOM     25  O   UNL     1      -0.335  -5.985  13.911  1.00  0.00    -0.365 OA
ATOM     26  H   UNL     1      -1.222  -6.424  13.932  1.00  0.00     0.214 HD
ENDBRANCH  24  25
BRANCH  24  27
ATOM     27  N   UNL     1       1.692  -6.333  14.866  1.00  0.00    -0.259 NA
ATOM     28  C   UNL     1       1.803  -6.268  16.332  1.00  0.00     0.104 C 
ATOM     29  C   UNL     1       2.924  -5.901  14.188  1.00  0.00     0.089 C 
ATOM     30  C   UNL     1       3.260  -5.838  16.569  1.00  0.00     0.025 C 
ATOM     31  C   UNL     1       3.696  -5.188  15.276  1.00  0.00     0.017 C 
BRANCH  28  32
ATOM     32  C   UNL     1       0.805  -5.307  16.979  1.00  0.00     0.197 C 
BRANCH  32  33
ATOM     33  O   UNL     1       0.486  -4.261  16.405  1.00  0.00    -0.377 OA
ATOM     34  H   UNL     1      -0.501  -4.182  16.389  1.00  0.00     0.212 HD
ENDBRANCH  32  33
BRANCH  32  35
ATOM     35  N   UNL     1       0.376  -5.623  18.191  1.00  0.00    -0.305 NA
ATOM     36  H   UNL     1      -0.055  -4.796  18.629  1.00  0.00     0.121 HD
ATOM     37  H   UNL     1      -0.322  -6.377  18.122  1.00  0.00     0.121 HD
ENDBRANCH  32  35
ENDBRANCH  28  32
ENDBRANCH  24  27
ENDBRANCH   1  24
TORSDOF 10
ENDMDL
MODEL 12
REMARK VINA RESULT:    -7.276      5.466      9.986
REMARK INTER + INTRA:         -12.083
REMARK INTER:                 -11.126
REMARK INTRA:                  -0.957
REMARK UNBOUND:                -1.192
REMARK SMILES C[C@H]1N[C@@H](N[C@@H](O)N2CCC[C@H]2[C@@H](N)O)S[C@@H]1[C@H]1CCN[C@H](C(C)(C)C(F)(F)F)C1
REMARK SMILES IDX 5 1 4 3 2 4 17 5 3 6 16 7 1 8 18 10 19 11 30 12 20 13 22 14
REMARK SMILES IDX 21 15 23 17 24 18 25 19 26 20 27 21 28 22 29 23 6 24 7 25
REMARK SMILES IDX 8 27 12 28 9 29 11 30 10 31 13 32 15 33 14 35
REMARK H PARENT 5 2 3 9 21 16 7 26 15 34 14 36 14 37
ROOT
ATOM      1  N   UNL     1      -1.878  -8.190  24.378  1.00  0.00    -0.255 NA
ATOM      2  H   UNL     1      -0.863  -8.354  24.430  1.00  0.00     0.129 HD
ENDROOT
BRANCH   1   3
ATOM      3  C   UNL     1      -2.251  -8.566  23.102  1.00  0.00     0.185 C 
ATOM      4  C   UNL     1      -3.534  -9.497  21.559  1.00  0.00     0.066 C 
ATOM      5  C   UNL     1      -2.550  -8.995  20.713  1.00  0.00     0.069 C 
ATOM      6  N   UNL     1      -3.354  -9.240  22.903  1.00  0.00    -0.290 NA
ATOM      7  S   UNL     1      -1.335  -8.197  21.683  1.00  0.00    -0.122 SA
ATOM      8  C   UNL     1      -4.751 -10.254  21.136  1.00  0.00     0.025 C 
ATOM      9  H   UNL     1      -4.153  -8.693  23.253  1.00  0.00     0.125 HD
BRANCH   5  10
ATOM     10  C   UNL     1      -2.327  -9.020  19.250  1.00  0.00     0.006 C 
ATOM     11  C   UNL     1      -1.947  -7.877  18.555  1.00  0.00     0.020 C 
ATOM     12  C   UNL     1      -2.470 -10.214  18.550  1.00  0.00     0.024 C 
ATOM     13  C   UNL     1      -1.774  -7.961  17.191  1.00  0.00     0.081 C 
ATOM     14  C   UNL     1      -2.252 -10.204  17.164  1.00  0.00     0.068 C 
ATOM     15  N   UNL     1      -1.928  -9.093  16.489  1.00  0.00    -0.313 NA
ATOM     16  H   UNL     1      -2.671  -8.925  15.795  1.00  0.00     0.122 HD
BRANCH  14  17
ATOM     17  C   UNL     1      -2.327 -11.507  16.332  1.00  0.00     0.076 C 
ATOM     18  C   UNL     1      -1.737 -11.305  14.927  1.00  0.00     0.022 C 
ATOM     19  C   UNL     1      -1.576 -12.640  17.052  1.00  0.00     0.022 C 
BRANCH  17  20
ATOM     20  C   UNL     1      -3.883 -11.964  16.145  1.00  0.00     0.395 C 
ATOM     21  F   UNL     1      -3.951 -13.171  15.585  1.00  0.00    -0.170 F 
ATOM     22  F   UNL     1      -4.546 -12.031  17.294  1.00  0.00    -0.170 F 
ATOM     23  F   UNL     1      -4.558 -11.124  15.369  1.00  0.00    -0.170 F 
ENDBRANCH  17  20
ENDBRANCH  14  17
ENDBRANCH   5  10
ENDBRANCH   1   3
BRANCH   1  24
ATOM     24  C   UNL     1      -2.084  -6.913  24.921  1.00  0.00     0.261 C 
BRANCH  24  25
ATOM     25  O   UNL     1      -1.737  -5.901  24.331  1.00  0.00    -0.365 OA
ATOM     26  H   UNL     1      -2.526  -5.480  23.906  1.00  0.00     0.214 HD
ENDBRANCH  24  25
BRANCH  24  27
ATOM     27  N   UNL     1      -2.699  -6.840  26.156  1.00  0.00    -0.259 NA
ATOM     28  C   UNL     1      -2.003  -6.204  27.287  1.00  0.00     0.104 C 
ATOM     29  C   UNL     1      -4.038  -7.328  26.522  1.00  0.00     0.089 C 
ATOM     30  C   UNL     1      -3.043  -6.233  28.419  1.00  0.00     0.025 C 
ATOM     31  C   UNL     1      -4.016  -7.323  28.035  1.00  0.00     0.017 C 
BRANCH  28  32
ATOM     32  C   UNL     1      -0.703  -6.908  27.679  1.00  0.00     0.197 C 
BRANCH  32  33
ATOM     33  O   UNL     1       0.218  -6.271  28.198  1.00  0.00    -0.377 OA
ATOM     34  H   UNL     1       1.083  -6.695  27.969  1.00  0.00     0.212 HD
ENDBRANCH  32  33
BRANCH  32  35
ATOM     35  N   UNL     1      -0.604  -8.190  27.367  1.00  0.00    -0.305 NA
ATOM     36  H   UNL     1      -1.539  -8.563  27.150  1.00  0.00     0.121 HD
ATOM     37  H   UNL     1       0.007  -8.298  26.545  1.00  0.00     0.121 HD
ENDBRANCH  32  35
ENDBRANCH  28  32
ENDBRANCH  24  27
ENDBRANCH   1  24
TORSDOF 10
ENDMDL
MODEL 13
REMARK VINA RESULT:    -7.218      4.620      9.335
REMARK INTER + INTRA:         -11.997
REMARK INTER:                 -10.942
REMARK INTRA:                  -1.055
REMARK UNBOUND:                -1.192
REMARK SMILES C[C@H]1N[C@@H](N[C@@H](O)N2CCC[C@H]2[C@@H](N)O)S[C@@H]1[C@H]1CCN[C@H](C(C)(C)C(F)(F)F)C1
REMARK SMILES IDX 5 1 4 3 2 4 17 5 3 6 16 7 1 8 18 10 19 11 30 12 20 13 22 14
REMARK SMILES IDX 21 15 23 17 24 18 25 19 26 20 27 21 28 22 29 23 6 24 7 25
REMARK SMILES IDX 8 27 12 28 9 29 11 30 10 31 13 32 15 33 14 35
REMARK H PARENT 5 2 3 9 21 16 7 26 15 34 14 36 14 37
ROOT
ATOM      1  N   UNL     1      -1.331  -8.736  18.738  1.00  0.00    -0.255 NA
ATOM      2  H   UNL     1      -1.808  -7.839  18.908  1.00  0.00     0.129 HD
ENDROOT
BRANCH   1   3
ATOM      3  C   UNL     1      -1.033  -8.749  17.389  1.00  0.00     0.185 C 
ATOM      4  C   UNL     1      -1.027  -9.545  15.325  1.00  0.00     0.066 C 
ATOM      5  C   UNL     1      -0.333  -8.365  15.077  1.00  0.00     0.069 C 
ATOM      6  N   UNL     1      -1.421  -9.743  16.633  1.00  0.00    -0.290 NA
ATOM      7  S   UNL     1      -0.150  -7.500  16.585  1.00  0.00    -0.122 SA
ATOM      8  C   UNL     1      -1.391 -10.578  14.308  1.00  0.00     0.025 C 
ATOM      9  H   UNL     1      -2.447  -9.815  16.670  1.00  0.00     0.125 HD
BRANCH   5  10
ATOM     10  C   UNL     1       0.265  -7.746  13.874  1.00  0.00     0.006 C 
ATOM     11  C   UNL     1       0.308  -6.365  13.714  1.00  0.00     0.020 C 
ATOM     12  C   UNL     1       0.826  -8.551  12.888  1.00  0.00     0.024 C 
ATOM     13  C   UNL     1       0.861  -5.850  12.563  1.00  0.00     0.081 C 
ATOM     14  C   UNL     1       1.384  -7.933  11.760  1.00  0.00     0.068 C 
ATOM     15  N   UNL     1       1.386  -6.604  11.587  1.00  0.00    -0.313 NA
ATOM     16  H   UNL     1       0.858  -6.404  10.725  1.00  0.00     0.122 HD
BRANCH  14  17
ATOM     17  C   UNL     1       2.085  -8.762  10.656  1.00  0.00     0.076 C 
ATOM     18  C   UNL     1       1.757 -10.258  10.792  1.00  0.00     0.022 C 
ATOM     19  C   UNL     1       1.657  -8.263   9.265  1.00  0.00     0.022 C 
BRANCH  17  20
ATOM     20  C   UNL     1       3.704  -8.605  10.778  1.00  0.00     0.395 C 
ATOM     21  F   UNL     1       4.161  -7.749   9.865  1.00  0.00    -0.170 F 
ATOM     22  F   UNL     1       4.094  -8.153  11.964  1.00  0.00    -0.170 F 
ATOM     23  F   UNL     1       4.331  -9.762  10.592  1.00  0.00    -0.170 F 
ENDBRANCH  17  20
ENDBRANCH  14  17
ENDBRANCH   5  10
ENDBRANCH   1   3
BRANCH   1  24
ATOM     24  C   UNL     1      -2.107  -9.706  19.388  1.00  0.00     0.261 C 
BRANCH  24  25
ATOM     25  O   UNL     1      -3.067 -10.231  18.843  1.00  0.00    -0.365 OA
ATOM     26  H   UNL     1      -2.756 -10.989  18.287  1.00  0.00     0.214 HD
ENDBRANCH  24  25
BRANCH  24  27
ATOM     27  N   UNL     1      -1.746 -10.051  20.676  1.00  0.00    -0.259 NA
ATOM     28  C   UNL     1      -2.712 -10.731  21.554  1.00  0.00     0.104 C 
ATOM     29  C   UNL     1      -0.448  -9.830  21.333  1.00  0.00     0.089 C 
ATOM     30  C   UNL     1      -1.905 -11.025  22.828  1.00  0.00     0.025 C 
ATOM     31  C   UNL     1      -0.750 -10.051  22.799  1.00  0.00     0.017 C 
BRANCH  28  32
ATOM     32  C   UNL     1      -3.965  -9.902  21.843  1.00  0.00     0.197 C 
BRANCH  32  33
ATOM     33  O   UNL     1      -5.002 -10.097  21.202  1.00  0.00    -0.377 OA
ATOM     34  H   UNL     1      -5.784  -9.974  21.795  1.00  0.00     0.212 HD
ENDBRANCH  32  33
BRANCH  32  35
ATOM     35  N   UNL     1      -3.847  -8.941  22.744  1.00  0.00    -0.305 NA
ATOM     36  H   UNL     1      -4.253  -9.255  23.637  1.00  0.00     0.121 HD
ATOM     37  H   UNL     1      -2.850  -8.718  22.881  1.00  0.00     0.121 HD
ENDBRANCH  32  35
ENDBRANCH  28  32
ENDBRANCH  24  27
ENDBRANCH   1  24
TORSDOF 10
ENDMDL
MODEL 14
REMARK VINA RESULT:    -7.195      2.685      4.152
REMARK INTER + INTRA:         -11.962
REMARK INTER:                 -12.038
REMARK INTRA:                   0.076
REMARK UNBOUND:                -1.192
REMARK SMILES C[C@H]1N[C@@H](N[C@@H](O)N2CCC[C@H]2[C@@H](N)O)S[C@@H]1[C@H]1CCN[C@H](C(C)(C)C(F)(F)F)C1
REMARK SMILES IDX 5 1 4 3 2 4 17 5 3 6 16 7 1 8 18 10 19 11 30 12 20 13 22 14
REMARK SMILES IDX 21 15 23 17 24 18 25 19 26 20 27 21 28 22 29 23 6 24 7 25
REMARK SMILES IDX 8 27 12 28 9 29 11 30 10 31 13 32 15 33 14 35
REMARK H PARENT 5 2 3 9 21 16 7 26 15 34 14 36 14 37
ROOT
ATOM      1  N   UNL     1       0.721  -7.360  12.250  1.00  0.00    -0.255 NA
ATOM      2  H   UNL     1       1.474  -6.699  12.487  1.00  0.00     0.129 HD
ENDROOT
BRANCH   1   3
ATOM      3  C   UNL     1       0.262  -7.850  13.458  1.00  0.00     0.185 C 
ATOM      4  C   UNL     1      -0.168  -7.806  15.628  1.00  0.00     0.066 C 
ATOM      5  C   UNL     1      -0.692  -9.065  15.353  1.00  0.00     0.069 C 
ATOM      6  N   UNL     1       0.360  -7.130  14.546  1.00  0.00    -0.290 NA
ATOM      7  S   UNL     1      -0.465  -9.405  13.654  1.00  0.00    -0.122 SA
ATOM      8  C   UNL     1      -0.153  -7.134  16.962  1.00  0.00     0.025 C 
ATOM      9  H   UNL     1      -0.154  -6.247  14.415  1.00  0.00     0.125 HD
BRANCH   5  10
ATOM     10  C   UNL     1      -1.341 -10.119  16.165  1.00  0.00     0.006 C 
ATOM     11  C   UNL     1      -1.523 -11.405  15.670  1.00  0.00     0.020 C 
ATOM     12  C   UNL     1      -1.756  -9.835  17.462  1.00  0.00     0.024 C 
ATOM     13  C   UNL     1      -2.150 -12.337  16.467  1.00  0.00     0.081 C 
ATOM     14  C   UNL     1      -2.368 -10.856  18.204  1.00  0.00     0.068 C 
ATOM     15  N   UNL     1      -2.581 -12.084  17.712  1.00  0.00    -0.313 NA
ATOM     16  H   UNL     1      -3.598 -12.249  17.725  1.00  0.00     0.122 HD
BRANCH  14  17
ATOM     17  C   UNL     1      -2.793 -10.631  19.676  1.00  0.00     0.076 C 
ATOM     18  C   UNL     1      -1.880 -11.403  20.643  1.00  0.00     0.022 C 
ATOM     19  C   UNL     1      -2.758  -9.131  20.016  1.00  0.00     0.022 C 
BRANCH  17  20
ATOM     20  C   UNL     1      -4.316 -11.171  19.908  1.00  0.00     0.395 C 
ATOM     21  F   UNL     1      -4.861 -11.546  18.752  1.00  0.00    -0.170 F 
ATOM     22  F   UNL     1      -4.376 -12.218  20.724  1.00  0.00    -0.170 F 
ATOM     23  F   UNL     1      -5.099 -10.237  20.436  1.00  0.00    -0.170 F 
ENDBRANCH  17  20
ENDBRANCH  14  17
ENDBRANCH   5  10
ENDBRANCH   1   3
BRANCH   1  24
ATOM     24  C   UNL     1       1.229  -8.157  11.213  1.00  0.00     0.261 C 
BRANCH  24  25
ATOM     25  O   UNL     1       0.544  -9.002  10.657  1.00  0.00    -0.365 OA
ATOM     26  H   UNL     1      -0.062  -8.561  10.009  1.00  0.00     0.214 HD
ENDBRANCH  24  25
BRANCH  24  27
ATOM     27  N   UNL     1       2.543  -7.950  10.839  1.00  0.00    -0.259 NA
ATOM     28  C   UNL     1       2.871  -7.660   9.434  1.00  0.00     0.104 C 
ATOM     29  C   UNL     1       3.735  -7.971  11.702  1.00  0.00     0.089 C 
ATOM     30  C   UNL     1       4.385  -7.397   9.459  1.00  0.00     0.025 C 
ATOM     31  C   UNL     1       4.882  -8.063  10.720  1.00  0.00     0.017 C 
BRANCH  28  32
ATOM     32  C   UNL     1       2.496  -8.789   8.472  1.00  0.00     0.197 C 
BRANCH  32  33
ATOM     33  O   UNL     1       2.546  -9.965   8.844  1.00  0.00    -0.377 OA
ATOM     34  H   UNL     1       1.840 -10.486   8.386  1.00  0.00     0.212 HD
ENDBRANCH  32  33
BRANCH  32  35
ATOM     35  N   UNL     1       2.196  -8.438   7.232  1.00  0.00    -0.305 NA
ATOM     36  H   UNL     1       1.374  -7.818   7.240  1.00  0.00     0.121 HD
ATOM     37  H   UNL     1       2.996  -7.943   6.812  1.00  0.00     0.121 HD
ENDBRANCH  32  35
ENDBRANCH  28  32
ENDBRANCH  24  27
ENDBRANCH   1  24
TORSDOF 10
ENDMDL
MODEL 15
REMARK VINA RESULT:    -7.054      2.285      4.302
REMARK INTER + INTRA:         -11.752
REMARK INTER:                 -11.134
REMARK INTRA:                  -0.618
REMARK UNBOUND:                -1.192
REMARK SMILES C[C@H]1N[C@@H](N[C@@H](O)N2CCC[C@H]2[C@@H](N)O)S[C@@H]1[C@H]1CCN[C@H](C(C)(C)C(F)(F)F)C1
REMARK SMILES IDX 5 1 4 3 2 4 17 5 3 6 16 7 1 8 18 10 19 11 30 12 20 13 22 14
REMARK SMILES IDX 21 15 23 17 24 18 25 19 26 20 27 21 28 22 29 23 6 24 7 25
REMARK SMILES IDX 8 27 12 28 9 29 11 30 10 31 13 32 15 33 14 35
REMARK H PARENT 5 2 3 9 21 16 7 26 15 34 14 36 14 37
ROOT
ATOM      1  N   UNL     1       0.110  -6.038  13.953  1.00  0.00    -0.255 NA
ATOM      2  H   UNL     1       0.809  -5.337  13.670  1.00  0.00     0.129 HD
ENDROOT
BRANCH   1   3
ATOM      3  C   UNL     1       0.059  -5.976  15.333  1.00  0.00     0.185 C 
ATOM      4  C   UNL     1       0.559  -5.201  17.344  1.00  0.00     0.066 C 
ATOM      5  C   UNL     1      -0.347  -6.182  17.735  1.00  0.00     0.069 C 
ATOM      6  N   UNL     1       0.772  -5.093  15.984  1.00  0.00    -0.290 NA
ATOM      7  S   UNL     1      -0.916  -7.016  16.309  1.00  0.00    -0.122 SA
ATOM      8  C   UNL     1       1.284  -4.264  18.254  1.00  0.00     0.025 C 
ATOM      9  H   UNL     1       0.505  -4.148  15.675  1.00  0.00     0.125 HD
BRANCH   5  10
ATOM     10  C   UNL     1      -0.873  -6.648  19.037  1.00  0.00     0.006 C 
ATOM     11  C   UNL     1      -0.896  -5.815  20.150  1.00  0.00     0.020 C 
ATOM     12  C   UNL     1      -1.385  -7.937  19.155  1.00  0.00     0.024 C 
ATOM     13  C   UNL     1      -1.381  -6.314  21.339  1.00  0.00     0.081 C 
ATOM     14  C   UNL     1      -1.876  -8.348  20.403  1.00  0.00     0.068 C 
ATOM     15  N   UNL     1      -1.858  -7.558  21.485  1.00  0.00    -0.313 NA
ATOM     16  H   UNL     1      -1.282  -8.027  22.199  1.00  0.00     0.122 HD
BRANCH  14  17
ATOM     17  C   UNL     1      -2.521  -9.743  20.590  1.00  0.00     0.076 C 
ATOM     18  C   UNL     1      -3.798  -9.655  21.441  1.00  0.00     0.022 C 
ATOM     19  C   UNL     1      -2.853 -10.362  19.221  1.00  0.00     0.022 C 
BRANCH  17  20
ATOM     20  C   UNL     1      -1.487 -10.740  21.363  1.00  0.00     0.395 C 
ATOM     21  F   UNL     1      -0.243 -10.268  21.295  1.00  0.00    -0.170 F 
ATOM     22  F   UNL     1      -1.775 -10.889  22.651  1.00  0.00    -0.170 F 
ATOM     23  F   UNL     1      -1.483 -11.959  20.834  1.00  0.00    -0.170 F 
ENDBRANCH  17  20
ENDBRANCH  14  17
ENDBRANCH   5  10
ENDBRANCH   1   3
BRANCH   1  24
ATOM     24  C   UNL     1       0.419  -7.195  13.223  1.00  0.00     0.261 C 
BRANCH  24  25
ATOM     25  O   UNL     1      -0.331  -8.160  13.200  1.00  0.00    -0.365 OA
ATOM     26  H   UNL     1      -1.132  -7.943  12.660  1.00  0.00     0.214 HD
ENDBRANCH  24  25
BRANCH  24  27
ATOM     27  N   UNL     1       1.610  -7.206  12.523  1.00  0.00    -0.259 NA
ATOM     28  C   UNL     1       1.627  -7.601  11.105  1.00  0.00     0.104 C 
ATOM     29  C   UNL     1       2.947  -6.846  13.022  1.00  0.00     0.089 C 
ATOM     30  C   UNL     1       3.088  -7.382  10.681  1.00  0.00     0.025 C 
ATOM     31  C   UNL     1       3.880  -7.400  11.968  1.00  0.00     0.017 C 
BRANCH  28  32
ATOM     32  C   UNL     1       1.165  -9.040  10.865  1.00  0.00     0.197 C 
BRANCH  32  33
ATOM     33  O   UNL     1       1.950  -9.979  11.024  1.00  0.00    -0.377 OA
ATOM     34  H   UNL     1       2.875  -9.631  11.076  1.00  0.00     0.212 HD
ENDBRANCH  32  33
BRANCH  32  35
ATOM     35  N   UNL     1      -0.070  -9.201  10.418  1.00  0.00    -0.305 NA
ATOM     36  H   UNL     1      -0.386 -10.160  10.621  1.00  0.00     0.121 HD
ATOM     37  H   UNL     1      -0.695  -8.528  10.884  1.00  0.00     0.121 HD
ENDBRANCH  32  35
ENDBRANCH  28  32
ENDBRANCH  24  27
ENDBRANCH   1  24
TORSDOF 10
ENDMDL
MODEL 16
REMARK VINA RESULT:    -7.034      3.062      4.127
REMARK INTER + INTRA:         -11.721
REMARK INTER:                 -10.991
REMARK INTRA:                  -0.730
REMARK UNBOUND:                -1.192
REMARK SMILES C[C@H]1N[C@@H](N[C@@H](O)N2CCC[C@H]2[C@@H](N)O)S[C@@H]1[C@H]1CCN[C@H](C(C)(C)C(F)(F)F)C1
REMARK SMILES IDX 5 1 4 3 2 4 17 5 3 6 16 7 1 8 18 10 19 11 30 12 20 13 22 14
REMARK SMILES IDX 21 15 23 17 24 18 25 19 26 20 27 21 28 22 29 23 6 24 7 25
REMARK SMILES IDX 8 27 12 28 9 29 11 30 10 31 13 32 15 33 14 35
REMARK H PARENT 5 2 3 9 21 16 7 26 15 34 14 36 14 37
ROOT
ATOM      1  N   UNL     1       0.387  -6.355  15.634  1.00  0.00    -0.255 NA
ATOM      2  H   UNL     1       0.343  -6.163  14.623  1.00  0.00     0.129 HD
ENDROOT
BRANCH   1   3
ATOM      3  C   UNL     1      -0.306  -7.536  15.818  1.00  0.00     0.185 C 
ATOM      4  C   UNL     1      -0.961  -9.594  15.339  1.00  0.00     0.066 C 
ATOM      5  C   UNL     1      -1.661  -9.443  16.532  1.00  0.00     0.069 C 
ATOM      6  N   UNL     1      -0.196  -8.512  14.954  1.00  0.00    -0.290 NA
ATOM      7  S   UNL     1      -1.352  -7.841  17.159  1.00  0.00    -0.122 SA
ATOM      8  C   UNL     1      -0.954 -10.814  14.476  1.00  0.00     0.025 C 
ATOM      9  H   UNL     1       0.791  -8.801  14.893  1.00  0.00     0.125 HD
BRANCH   5  10
ATOM     10  C   UNL     1      -2.577 -10.302  17.315  1.00  0.00     0.006 C 
ATOM     11  C   UNL     1      -3.306 -11.322  16.712  1.00  0.00     0.020 C 
ATOM     12  C   UNL     1      -2.699 -10.113  18.688  1.00  0.00     0.024 C 
ATOM     13  C   UNL     1      -4.156 -12.075  17.492  1.00  0.00     0.081 C 
ATOM     14  C   UNL     1      -3.576 -10.943  19.400  1.00  0.00     0.068 C 
ATOM     15  N   UNL     1      -4.309 -11.898  18.812  1.00  0.00    -0.313 NA
ATOM     16  H   UNL     1      -5.300 -11.672  18.979  1.00  0.00     0.122 HD
BRANCH  14  17
ATOM     17  C   UNL     1      -3.711 -10.834  20.938  1.00  0.00     0.076 C 
ATOM     18  C   UNL     1      -4.331  -9.488  21.348  1.00  0.00     0.022 C 
ATOM     19  C   UNL     1      -4.573 -11.988  21.479  1.00  0.00     0.022 C 
BRANCH  17  20
ATOM     20  C   UNL     1      -2.240 -10.926  21.639  1.00  0.00     0.395 C 
ATOM     21  F   UNL     1      -1.501 -11.868  21.054  1.00  0.00    -0.170 F 
ATOM     22  F   UNL     1      -1.555  -9.790  21.559  1.00  0.00    -0.170 F 
ATOM     23  F   UNL     1      -2.322 -11.225  22.930  1.00  0.00    -0.170 F 
ENDBRANCH  17  20
ENDBRANCH  14  17
ENDBRANCH   5  10
ENDBRANCH   1   3
BRANCH   1  24
ATOM     24  C   UNL     1       0.069  -5.142  16.263  1.00  0.00     0.261 C 
BRANCH  24  25
ATOM     25  O   UNL     1      -0.923  -4.498  15.954  1.00  0.00    -0.365 OA
ATOM     26  H   UNL     1      -0.647  -3.607  15.622  1.00  0.00     0.214 HD
ENDBRANCH  24  25
BRANCH  24  27
ATOM     27  N   UNL     1       0.923  -4.698  17.255  1.00  0.00    -0.259 NA
ATOM     28  C   UNL     1       0.485  -3.644  18.184  1.00  0.00     0.104 C 
ATOM     29  C   UNL     1       2.289  -5.166  17.537  1.00  0.00     0.089 C 
ATOM     30  C   UNL     1       1.657  -3.518  19.171  1.00  0.00     0.025 C 
ATOM     31  C   UNL     1       2.850  -4.094  18.445  1.00  0.00     0.017 C 
BRANCH  28  32
ATOM     32  C   UNL     1       0.165  -2.316  17.495  1.00  0.00     0.197 C 
BRANCH  32  33
ATOM     33  O   UNL     1       1.070  -1.635  17.005  1.00  0.00    -0.377 OA
ATOM     34  H   UNL     1       0.846  -0.675  17.094  1.00  0.00     0.212 HD
ENDBRANCH  32  33
BRANCH  32  35
ATOM     35  N   UNL     1      -1.098  -1.921  17.526  1.00  0.00    -0.305 NA
ATOM     36  H   UNL     1      -1.652  -2.585  18.085  1.00  0.00     0.121 HD
ATOM     37  H   UNL     1      -1.155  -0.984  17.949  1.00  0.00     0.121 HD
ENDBRANCH  32  35
ENDBRANCH  28  32
ENDBRANCH  24  27
ENDBRANCH   1  24
TORSDOF 10
ENDMDL
MODEL 17
REMARK VINA RESULT:    -7.031      2.147      3.303
REMARK INTER + INTRA:         -11.717
REMARK INTER:                 -10.467
REMARK INTRA:                  -1.250
REMARK UNBOUND:                -1.192
REMARK SMILES C[C@H]1N[C@@H](N[C@@H](O)N2CCC[C@H]2[C@@H](N)O)S[C@@H]1[C@H]1CCN[C@H](C(C)(C)C(F)(F)F)C1
REMARK SMILES IDX 5 1 4 3 2 4 17 5 3 6 16 7 1 8 18 10 19 11 30 12 20 13 22 14
REMARK SMILES IDX 21 15 23 17 24 18 25 19 26 20 27 21 28 22 29 23 6 24 7 25
REMARK SMILES IDX 8 27 12 28 9 29 11 30 10 31 13 32 15 33 14 35
REMARK H PARENT 5 2 3 9 21 16 7 26 15 34 14 36 14 37
ROOT
ATOM      1  N   UNL     1       1.149  -5.646  14.869  1.00  0.00    -0.255 NA
ATOM      2  H   UNL     1       1.056  -4.948  15.620  1.00  0.00     0.129 HD
ENDROOT
BRANCH   1   3
ATOM      3  C   UNL     1       0.414  -6.740  15.286  1.00  0.00     0.185 C 
ATOM      4  C   UNL     1      -0.477  -8.759  15.128  1.00  0.00     0.066 C 
ATOM      5  C   UNL     1      -0.924  -8.451  16.409  1.00  0.00     0.069 C 
ATOM      6  N   UNL     1       0.283  -7.786  14.511  1.00  0.00    -0.290 NA
ATOM      7  S   UNL     1      -0.379  -6.841  16.817  1.00  0.00    -0.122 SA
ATOM      8  C   UNL     1      -0.728 -10.037  14.396  1.00  0.00     0.025 C 
ATOM      9  H   UNL     1       1.215  -8.169  14.299  1.00  0.00     0.125 HD
BRANCH   5  10
ATOM     10  C   UNL     1      -1.739  -9.157  17.422  1.00  0.00     0.006 C 
ATOM     11  C   UNL     1      -2.727 -10.064  17.054  1.00  0.00     0.020 C 
ATOM     12  C   UNL     1      -1.502  -8.939  18.776  1.00  0.00     0.024 C 
ATOM     13  C   UNL     1      -3.464 -10.675  18.044  1.00  0.00     0.081 C 
ATOM     14  C   UNL     1      -2.292  -9.624  19.710  1.00  0.00     0.068 C 
ATOM     15  N   UNL     1      -3.272 -10.465  19.354  1.00  0.00    -0.313 NA
ATOM     16  H   UNL     1      -4.153 -10.094  19.738  1.00  0.00     0.122 HD
BRANCH  14  17
ATOM     17  C   UNL     1      -2.039  -9.481  21.231  1.00  0.00     0.076 C 
ATOM     18  C   UNL     1      -1.542  -8.069  21.582  1.00  0.00     0.022 C 
ATOM     19  C   UNL     1      -3.328  -9.785  22.014  1.00  0.00     0.022 C 
BRANCH  17  20
ATOM     20  C   UNL     1      -0.890 -10.535  21.710  1.00  0.00     0.395 C 
ATOM     21  F   UNL     1      -1.097 -11.733  21.165  1.00  0.00    -0.170 F 
ATOM     22  F   UNL     1       0.336 -10.158  21.367  1.00  0.00    -0.170 F 
ATOM     23  F   UNL     1      -0.880 -10.692  23.030  1.00  0.00    -0.170 F 
ENDBRANCH  17  20
ENDBRANCH  14  17
ENDBRANCH   5  10
ENDBRANCH   1   3
BRANCH   1  24
ATOM     24  C   UNL     1       2.516  -5.683  14.553  1.00  0.00     0.261 C 
BRANCH  24  25
ATOM     25  O   UNL     1       3.297  -6.399  15.162  1.00  0.00    -0.365 OA
ATOM     26  H   UNL     1       2.921  -7.313  15.232  1.00  0.00     0.214 HD
ENDBRANCH  24  25
BRANCH  24  27
ATOM     27  N   UNL     1       2.951  -4.874  13.521  1.00  0.00    -0.259 NA
ATOM     28  C   UNL     1       2.269  -4.915  12.217  1.00  0.00     0.104 C 
ATOM     29  C   UNL     1       4.062  -3.909  13.545  1.00  0.00     0.089 C 
ATOM     30  C   UNL     1       2.973  -3.819  11.402  1.00  0.00     0.025 C 
ATOM     31  C   UNL     1       4.307  -3.615  12.081  1.00  0.00     0.017 C 
BRANCH  28  32
ATOM     32  C   UNL     1       2.341  -6.281  11.532  1.00  0.00     0.197 C 
BRANCH  32  33
ATOM     33  O   UNL     1       2.300  -7.316  12.203  1.00  0.00    -0.377 OA
ATOM     34  H   UNL     1       3.020  -7.297  12.882  1.00  0.00     0.212 HD
ENDBRANCH  32  33
BRANCH  32  35
ATOM     35  N   UNL     1       2.519  -6.279  10.221  1.00  0.00    -0.305 NA
ATOM     36  H   UNL     1       3.525  -6.206  10.012  1.00  0.00     0.121 HD
ATOM     37  H   UNL     1       2.148  -7.154   9.822  1.00  0.00     0.121 HD
ENDBRANCH  32  35
ENDBRANCH  28  32
ENDBRANCH  24  27
ENDBRANCH   1  24
TORSDOF 10
ENDMDL
MODEL 18
REMARK VINA RESULT:    -7.022      2.288      3.423
REMARK INTER + INTRA:         -11.703
REMARK INTER:                 -11.024
REMARK INTRA:                  -0.679
REMARK UNBOUND:                -1.192
REMARK SMILES C[C@H]1N[C@@H](N[C@@H](O)N2CCC[C@H]2[C@@H](N)O)S[C@@H]1[C@H]1CCN[C@H](C(C)(C)C(F)(F)F)C1
REMARK SMILES IDX 5 1 4 3 2 4 17 5 3 6 16 7 1 8 18 10 19 11 30 12 20 13 22 14
REMARK SMILES IDX 21 15 23 17 24 18 25 19 26 20 27 21 28 22 29 23 6 24 7 25
REMARK SMILES IDX 8 27 12 28 9 29 11 30 10 31 13 32 15 33 14 35
REMARK H PARENT 5 2 3 9 21 16 7 26 15 34 14 36 14 37
ROOT
ATOM      1  N   UNL     1       0.662  -6.812  14.503  1.00  0.00    -0.255 NA
ATOM      2  H   UNL     1       1.631  -6.950  14.826  1.00  0.00     0.129 HD
ENDROOT
BRANCH   1   3
ATOM      3  C   UNL     1      -0.136  -7.072  15.601  1.00  0.00     0.185 C 
ATOM      4  C   UNL     1      -1.496  -6.583  17.276  1.00  0.00     0.066 C 
ATOM      5  C   UNL     1      -1.461  -7.962  17.453  1.00  0.00     0.069 C 
ATOM      6  N   UNL     1      -0.748  -6.097  16.222  1.00  0.00    -0.290 NA
ATOM      7  S   UNL     1      -0.402  -8.652  16.246  1.00  0.00    -0.122 SA
ATOM      8  C   UNL     1      -2.277  -5.612  18.101  1.00  0.00     0.025 C 
ATOM      9  H   UNL     1      -1.372  -5.614  15.560  1.00  0.00     0.125 HD
BRANCH   5  10
ATOM     10  C   UNL     1      -2.081  -8.902  18.414  1.00  0.00     0.006 C 
ATOM     11  C   UNL     1      -2.898  -9.942  17.986  1.00  0.00     0.020 C 
ATOM     12  C   UNL     1      -1.826  -8.766  19.775  1.00  0.00     0.024 C 
ATOM     13  C   UNL     1      -3.461 -10.771  18.931  1.00  0.00     0.081 C 
ATOM     14  C   UNL     1      -2.430  -9.672  20.659  1.00  0.00     0.068 C 
ATOM     15  N   UNL     1      -3.251 -10.649  20.249  1.00  0.00    -0.313 NA
ATOM     16  H   UNL     1      -4.167 -10.489  20.693  1.00  0.00     0.122 HD
BRANCH  14  17
ATOM     17  C   UNL     1      -2.139  -9.624  22.179  1.00  0.00     0.076 C 
ATOM     18  C   UNL     1      -1.936 -11.036  22.752  1.00  0.00     0.022 C 
ATOM     19  C   UNL     1      -0.889  -8.770  22.452  1.00  0.00     0.022 C 
BRANCH  17  20
ATOM     20  C   UNL     1      -3.398  -8.953  22.971  1.00  0.00     0.395 C 
ATOM     21  F   UNL     1      -2.966  -8.174  23.962  1.00  0.00    -0.170 F 
ATOM     22  F   UNL     1      -4.161  -8.198  22.188  1.00  0.00    -0.170 F 
ATOM     23  F   UNL     1      -4.197  -9.871  23.502  1.00  0.00    -0.170 F 
ENDBRANCH  17  20
ENDBRANCH  14  17
ENDBRANCH   5  10
ENDBRANCH   1   3
BRANCH   1  24
ATOM     24  C   UNL     1       0.572  -7.490  13.278  1.00  0.00     0.261 C 
BRANCH  24  25
ATOM     25  O   UNL     1      -0.438  -8.096  12.953  1.00  0.00    -0.365 OA
ATOM     26  H   UNL     1      -0.355  -8.394  12.012  1.00  0.00     0.214 HD
ENDBRANCH  24  25
BRANCH  24  27
ATOM     27  N   UNL     1       1.674  -7.447  12.446  1.00  0.00    -0.259 NA
ATOM     28  C   UNL     1       1.520  -7.724  11.008  1.00  0.00     0.104 C 
ATOM     29  C   UNL     1       3.064  -7.135  12.813  1.00  0.00     0.089 C 
ATOM     30  C   UNL     1       2.925  -7.476  10.436  1.00  0.00     0.025 C 
ATOM     31  C   UNL     1       3.861  -7.603  11.615  1.00  0.00     0.017 C 
BRANCH  28  32
ATOM     32  C   UNL     1       1.015  -9.136  10.707  1.00  0.00     0.197 C 
BRANCH  32  33
ATOM     33  O   UNL     1      -0.168  -9.323  10.408  1.00  0.00    -0.377 OA
ATOM     34  H   UNL     1      -0.288  -9.185   9.436  1.00  0.00     0.212 HD
ENDBRANCH  32  33
BRANCH  32  35
ATOM     35  N   UNL     1       1.884 -10.122  10.857  1.00  0.00    -0.305 NA
ATOM     36  H   UNL     1       2.426 -10.237   9.990  1.00  0.00     0.121 HD
ATOM     37  H   UNL     1       2.523  -9.902  11.635  1.00  0.00     0.121 HD
ENDBRANCH  32  35
ENDBRANCH  28  32
ENDBRANCH  24  27
ENDBRANCH   1  24
TORSDOF 10
ENDMDL
MODEL 19
REMARK VINA RESULT:    -6.981      3.026      4.317
REMARK INTER + INTRA:         -11.642
REMARK INTER:                 -10.656
REMARK INTRA:                  -0.986
REMARK UNBOUND:                -1.192
REMARK SMILES C[C@H]1N[C@@H](N[C@@H](O)N2CCC[C@H]2[C@@H](N)O)S[C@@H]1[C@H]1CCN[C@H](C(C)(C)C(F)(F)F)C1
REMARK SMILES IDX 5 1 4 3 2 4 17 5 3 6 16 7 1 8 18 10 19 11 30 12 20 13 22 14
REMARK SMILES IDX 21 15 23 17 24 18 25 19 26 20 27 21 28 22 29 23 6 24 7 25
REMARK SMILES IDX 8 27 12 28 9 29 11 30 10 31 13 32 15 33 14 35
REMARK H PARENT 5 2 3 9 21 16 7 26 15 34 14 36 14 37
ROOT
ATOM      1  N   UNL     1       0.744  -5.485  15.771  1.00  0.00    -0.255 NA
ATOM      2  H   UNL     1       0.343  -5.040  14.933  1.00  0.00     0.129 HD
ENDROOT
BRANCH   1   3
ATOM      3  C   UNL     1       0.093  -6.697  15.896  1.00  0.00     0.185 C 
ATOM      4  C   UNL     1      -0.531  -8.731  15.291  1.00  0.00     0.066 C 
ATOM      5  C   UNL     1      -1.173  -8.692  16.525  1.00  0.00     0.069 C 
ATOM      6  N   UNL     1       0.185  -7.600  14.955  1.00  0.00    -0.290 NA
ATOM      7  S   UNL     1      -0.876  -7.134  17.258  1.00  0.00    -0.122 SA
ATOM      8  C   UNL     1      -0.535  -9.881  14.336  1.00  0.00     0.025 C 
ATOM      9  H   UNL     1       1.175  -7.853  14.825  1.00  0.00     0.125 HD
BRANCH   5  10
ATOM     10  C   UNL     1      -2.026  -9.636  17.281  1.00  0.00     0.006 C 
ATOM     11  C   UNL     1      -2.704 -10.670  16.645  1.00  0.00     0.020 C 
ATOM     12  C   UNL     1      -2.136  -9.513  18.663  1.00  0.00     0.024 C 
ATOM     13  C   UNL     1      -3.497 -11.503  17.402  1.00  0.00     0.081 C 
ATOM     14  C   UNL     1      -2.953 -10.423  19.350  1.00  0.00     0.068 C 
ATOM     15  N   UNL     1      -3.640 -11.392  18.731  1.00  0.00    -0.313 NA
ATOM     16  H   UNL     1      -4.639 -11.232  18.921  1.00  0.00     0.122 HD
BRANCH  14  17
ATOM     17  C   UNL     1      -3.069 -10.387  20.893  1.00  0.00     0.076 C 
ATOM     18  C   UNL     1      -3.340  -8.961  21.398  1.00  0.00     0.022 C 
ATOM     19  C   UNL     1      -4.194 -11.326  21.362  1.00  0.00     0.022 C 
BRANCH  17  20
ATOM     20  C   UNL     1      -1.672 -10.887  21.573  1.00  0.00     0.395 C 
ATOM     21  F   UNL     1      -1.242 -12.006  20.991  1.00  0.00    -0.170 F 
ATOM     22  F   UNL     1      -0.695  -9.994  21.467  1.00  0.00    -0.170 F 
ATOM     23  F   UNL     1      -1.813 -11.138  22.870  1.00  0.00    -0.170 F 
ENDBRANCH  17  20
ENDBRANCH  14  17
ENDBRANCH   5  10
ENDBRANCH   1   3
BRANCH   1  24
ATOM     24  C   UNL     1       0.761  -4.487  16.758  1.00  0.00     0.261 C 
BRANCH  24  25
ATOM     25  O   UNL     1      -0.135  -3.661  16.851  1.00  0.00    -0.365 OA
ATOM     26  H   UNL     1      -0.987  -4.063  16.546  1.00  0.00     0.214 HD
ENDBRANCH  24  25
BRANCH  24  27
ATOM     27  N   UNL     1       1.834  -4.473  17.628  1.00  0.00    -0.259 NA
ATOM     28  C   UNL     1       3.206  -4.377  17.102  1.00  0.00     0.104 C 
ATOM     29  C   UNL     1       1.797  -4.532  19.098  1.00  0.00     0.089 C 
ATOM     30  C   UNL     1       4.075  -4.286  18.366  1.00  0.00     0.025 C 
ATOM     31  C   UNL     1       3.225  -4.861  19.475  1.00  0.00     0.017 C 
BRANCH  28  32
ATOM     32  C   UNL     1       3.602  -5.556  16.211  1.00  0.00     0.197 C 
BRANCH  32  33
ATOM     33  O   UNL     1       3.558  -6.709  16.649  1.00  0.00    -0.377 OA
ATOM     34  H   UNL     1       3.995  -6.741  17.537  1.00  0.00     0.212 HD
ENDBRANCH  32  33
BRANCH  32  35
ATOM     35  N   UNL     1       4.053  -5.261  15.003  1.00  0.00    -0.305 NA
ATOM     36  H   UNL     1       3.429  -5.671  14.294  1.00  0.00     0.121 HD
ATOM     37  H   UNL     1       4.081  -4.238  14.886  1.00  0.00     0.121 HD
ENDBRANCH  32  35
ENDBRANCH  28  32
ENDBRANCH  24  27
ENDBRANCH   1  24
TORSDOF 10
ENDMDL
MODEL 20
REMARK VINA RESULT:    -6.843      2.109      3.276
REMARK INTER + INTRA:         -11.435
REMARK INTER:                 -10.453
REMARK INTRA:                  -0.982
REMARK UNBOUND:                -1.192
REMARK SMILES C[C@H]1N[C@@H](N[C@@H](O)N2CCC[C@H]2[C@@H](N)O)S[C@@H]1[C@H]1CCN[C@H](C(C)(C)C(F)(F)F)C1
REMARK SMILES IDX 5 1 4 3 2 4 17 5 3 6 16 7 1 8 18 10 19 11 30 12 20 13 22 14
REMARK SMILES IDX 21 15 23 17 24 18 25 19 26 20 27 21 28 22 29 23 6 24 7 25
REMARK SMILES IDX 8 27 12 28 9 29 11 30 10 31 13 32 15 33 14 35
REMARK H PARENT 5 2 3 9 21 16 7 26 15 34 14 36 14 37
ROOT
ATOM      1  N   UNL     1       0.742  -6.415  13.947  1.00  0.00    -0.255 NA
ATOM      2  H   UNL     1       0.866  -5.407  14.118  1.00  0.00     0.129 HD
ENDROOT
BRANCH   1   3
ATOM      3  C   UNL     1      -0.037  -6.875  14.992  1.00  0.00     0.185 C 
ATOM      4  C   UNL     1      -1.297  -6.708  16.803  1.00  0.00     0.066 C 
ATOM      5  C   UNL     1      -1.366  -8.089  16.647  1.00  0.00     0.069 C 
ATOM      6  N   UNL     1      -0.549  -6.037  15.857  1.00  0.00    -0.290 NA
ATOM      7  S   UNL     1      -0.407  -8.541  15.258  1.00  0.00    -0.122 SA
ATOM      8  C   UNL     1      -1.971  -5.912  17.873  1.00  0.00     0.025 C 
ATOM      9  H   UNL     1      -1.154  -5.367  15.361  1.00  0.00     0.125 HD
BRANCH   5  10
ATOM     10  C   UNL     1      -2.026  -9.186  17.389  1.00  0.00     0.006 C 
ATOM     11  C   UNL     1      -2.621 -10.254  16.726  1.00  0.00     0.020 C 
ATOM     12  C   UNL     1      -2.034  -9.173  18.781  1.00  0.00     0.024 C 
ATOM     13  C   UNL     1      -3.236 -11.234  17.473  1.00  0.00     0.081 C 
ATOM     14  C   UNL     1      -2.669 -10.227  19.453  1.00  0.00     0.068 C 
ATOM     15  N   UNL     1      -3.279 -11.234  18.813  1.00  0.00    -0.313 NA
ATOM     16  H   UNL     1      -4.271 -11.219  19.090  1.00  0.00     0.122 HD
BRANCH  14  17
ATOM     17  C   UNL     1      -2.658 -10.313  20.999  1.00  0.00     0.076 C 
ATOM     18  C   UNL     1      -2.741  -8.915  21.634  1.00  0.00     0.022 C 
ATOM     19  C   UNL     1      -3.832 -11.176  21.491  1.00  0.00     0.022 C 
BRANCH  17  20
ATOM     20  C   UNL     1      -1.269 -11.000  21.513  1.00  0.00     0.395 C 
ATOM     21  F   UNL     1      -1.284 -11.149  22.837  1.00  0.00    -0.170 F 
ATOM     22  F   UNL     1      -1.059 -12.201  20.989  1.00  0.00    -0.170 F 
ATOM     23  F   UNL     1      -0.207 -10.264  21.205  1.00  0.00    -0.170 F 
ENDBRANCH  17  20
ENDBRANCH  14  17
ENDBRANCH   5  10
ENDBRANCH   1   3
BRANCH   1  24
ATOM     24  C   UNL     1       2.018  -6.906  13.634  1.00  0.00     0.261 C 
BRANCH  24  25
ATOM     25  O   UNL     1       2.976  -6.721  14.371  1.00  0.00    -0.365 OA
ATOM     26  H   UNL     1       3.386  -7.592  14.603  1.00  0.00     0.214 HD
ENDBRANCH  24  25
BRANCH  24  27
ATOM     27  N   UNL     1       2.155  -7.612  12.454  1.00  0.00    -0.259 NA
ATOM     28  C   UNL     1       3.424  -7.560  11.710  1.00  0.00     0.104 C 
ATOM     29  C   UNL     1       1.154  -8.469  11.801  1.00  0.00     0.089 C 
ATOM     30  C   UNL     1       3.205  -8.538  10.545  1.00  0.00     0.025 C 
ATOM     31  C   UNL     1       1.705  -8.656  10.404  1.00  0.00     0.017 C 
BRANCH  28  32
ATOM     32  C   UNL     1       3.791  -6.156  11.224  1.00  0.00     0.197 C 
BRANCH  32  33
ATOM     33  O   UNL     1       4.817  -5.605  11.632  1.00  0.00    -0.377 OA
ATOM     34  H   UNL     1       5.330  -5.252  10.863  1.00  0.00     0.212 HD
ENDBRANCH  32  33
BRANCH  32  35
ATOM     35  N   UNL     1       2.925  -5.561  10.420  1.00  0.00    -0.305 NA
ATOM     36  H   UNL     1       2.669  -6.201   9.656  1.00  0.00     0.121 HD
ATOM     37  H   UNL     1       2.080  -5.307  10.953  1.00  0.00     0.121 HD
ENDBRANCH  32  35
ENDBRANCH  28  32
ENDBRANCH  24  27
ENDBRANCH   1  24
TORSDOF 10
ENDMDL
