MODEL 1
REMARK VINA RESULT:    -8.066      0.000      0.000
REMARK INTER + INTRA:         -10.260
REMARK INTER:                  -9.481
REMARK INTRA:                  -0.779
REMARK UNBOUND:                -0.779
REMARK SMILES O=c1[nH]c(Cc2ccccn2)nc2c1cnn2C1CCOCC1
REMARK SMILES IDX 17 1 13 2 14 3 15 4 16 5 2 6 1 7 3 8 4 9 12 10 18 12 19 13
REMARK SMILES IDX 20 14 21 15 23 16 22 17 5 18 6 19 7 20 11 21 8 22 10 23 9 24
REMARK H PARENT 3 11
ROOT
ATOM      1  N   UNL     1      78.020  52.276  43.581  1.00  0.00    -0.244 N 
ATOM      2  C   UNL     1      78.699  51.591  42.607  1.00  0.00     0.165 A 
ATOM      3  C   UNL     1      77.892  51.629  41.495  1.00  0.00     0.104 A 
ATOM      4  C   UNL     1      76.756  52.346  41.875  1.00  0.00     0.151 A 
ATOM      5  N   UNL     1      76.821  52.749  43.150  1.00  0.00    -0.178 NA
ATOM      6  C   UNL     1      78.332  50.983  40.294  1.00  0.00     0.262 A 
ATOM      7  O   UNL     1      77.673  50.919  39.264  1.00  0.00    -0.269 OA
ATOM      8  N   UNL     1      79.586  50.424  40.434  1.00  0.00    -0.310 N 
ATOM      9  C   UNL     1      80.310  50.421  41.622  1.00  0.00     0.117 A 
ATOM     10  N   UNL     1      79.912  50.996  42.723  1.00  0.00    -0.215 NA
ATOM     11  H   UNL     1      79.929  49.876  39.650  1.00  0.00     0.171 HD
ENDROOT
BRANCH   1  12
ATOM     12  C   UNL     1      78.424  52.531  44.956  1.00  0.00     0.114 C 
ATOM     13  C   UNL     1      78.783  53.998  45.205  1.00  0.00     0.056 C 
ATOM     14  C   UNL     1      79.185  54.191  46.659  1.00  0.00     0.162 C 
ATOM     15  O   UNL     1      78.150  53.739  47.531  1.00  0.00    -0.381 OA
ATOM     16  C   UNL     1      77.397  52.035  45.979  1.00  0.00     0.056 C 
ATOM     17  C   UNL     1      77.882  52.346  47.386  1.00  0.00     0.162 C 
ENDBRANCH   1  12
BRANCH   9  18
ATOM     18  C   UNL     1      81.651  49.727  41.559  1.00  0.00     0.131 C 
BRANCH  18  19
ATOM     19  C   UNL     1      82.038  49.389  40.144  1.00  0.00     0.048 A 
ATOM     20  C   UNL     1      82.045  48.071  39.700  1.00  0.00     0.024 A 
ATOM     21  N   UNL     1      82.331  50.440  39.331  1.00  0.00    -0.261 NA
ATOM     22  C   UNL     1      82.385  47.814  38.374  1.00  0.00     0.003 A 
ATOM     23  C   UNL     1      82.660  50.156  38.051  1.00  0.00     0.111 A 
ATOM     24  C   UNL     1      82.700  48.874  37.532  1.00  0.00     0.020 A 
ENDBRANCH  18  19
ENDBRANCH   9  18
TORSDOF 3
ENDMDL
MODEL 2
REMARK VINA RESULT:    -8.028      4.981      9.548
REMARK INTER + INTRA:         -10.215
REMARK INTER:                  -9.315
REMARK INTRA:                  -0.900
REMARK UNBOUND:                -0.779
REMARK SMILES O=c1[nH]c(Cc2ccccn2)nc2c1cnn2C1CCOCC1
REMARK SMILES IDX 17 1 13 2 14 3 15 4 16 5 2 6 1 7 3 8 4 9 12 10 18 12 19 13
REMARK SMILES IDX 20 14 21 15 23 16 22 17 5 18 6 19 7 20 11 21 8 22 10 23 9 24
REMARK H PARENT 3 11
ROOT
ATOM      1  N   UNL     1      82.460  49.002  34.265  1.00  0.00    -0.244 N 
ATOM      2  C   UNL     1      82.857  48.836  35.566  1.00  0.00     0.165 A 
ATOM      3  C   UNL     1      84.211  49.073  35.576  1.00  0.00     0.104 A 
ATOM      4  C   UNL     1      84.553  49.371  34.256  1.00  0.00     0.151 A 
ATOM      5  N   UNL     1      83.491  49.333  33.441  1.00  0.00    -0.178 NA
ATOM      6  C   UNL     1      84.926  48.968  36.812  1.00  0.00     0.262 A 
ATOM      7  O   UNL     1      86.137  49.115  36.924  1.00  0.00    -0.269 OA
ATOM      8  N   UNL     1      84.093  48.666  37.871  1.00  0.00    -0.310 N 
ATOM      9  C   UNL     1      82.731  48.419  37.745  1.00  0.00     0.117 A 
ATOM     10  N   UNL     1      82.073  48.501  36.621  1.00  0.00    -0.215 NA
ATOM     11  H   UNL     1      84.542  48.494  38.766  1.00  0.00     0.171 HD
ENDROOT
BRANCH   1  12
ATOM     12  C   UNL     1      81.126  48.864  33.701  1.00  0.00     0.114 C 
ATOM     13  C   UNL     1      80.271  50.121  33.887  1.00  0.00     0.056 C 
ATOM     14  C   UNL     1      78.899  49.907  33.268  1.00  0.00     0.162 C 
ATOM     15  O   UNL     1      79.018  49.542  31.894  1.00  0.00    -0.381 OA
ATOM     16  C   UNL     1      81.143  48.423  32.233  1.00  0.00     0.056 C 
ATOM     17  C   UNL     1      79.718  48.312  31.714  1.00  0.00     0.162 C 
ENDBRANCH   1  12
BRANCH   9  18
ATOM     18  C   UNL     1      82.013  48.079  39.031  1.00  0.00     0.131 C 
BRANCH  18  19
ATOM     19  C   UNL     1      81.492  49.311  39.720  1.00  0.00     0.048 A 
ATOM     20  C   UNL     1      80.190  49.363  40.208  1.00  0.00     0.024 A 
ATOM     21  N   UNL     1      82.373  50.337  39.870  1.00  0.00    -0.261 NA
ATOM     22  C   UNL     1      79.766  50.517  40.860  1.00  0.00     0.003 A 
ATOM     23  C   UNL     1      81.928  51.445  40.505  1.00  0.00     0.111 A 
ATOM     24  C   UNL     1      80.647  51.580  41.011  1.00  0.00     0.020 A 
ENDBRANCH  18  19
ENDBRANCH   9  18
TORSDOF 3
ENDMDL
MODEL 3
REMARK VINA RESULT:    -7.925      2.919      4.965
REMARK INTER + INTRA:         -10.094
REMARK INTER:                  -9.236
REMARK INTRA:                  -0.858
REMARK UNBOUND:                -0.779
REMARK SMILES O=c1[nH]c(Cc2ccccn2)nc2c1cnn2C1CCOCC1
REMARK SMILES IDX 17 1 13 2 14 3 15 4 16 5 2 6 1 7 3 8 4 9 12 10 18 12 19 13
REMARK SMILES IDX 20 14 21 15 23 16 22 17 5 18 6 19 7 20 11 21 8 22 10 23 9 24
REMARK H PARENT 3 11
ROOT
ATOM      1  N   UNL     1      76.455  52.833  41.021  1.00  0.00    -0.244 N 
ATOM      2  C   UNL     1      77.460  51.927  40.804  1.00  0.00     0.165 A 
ATOM      3  C   UNL     1      77.944  51.603  42.049  1.00  0.00     0.104 A 
ATOM      4  C   UNL     1      77.188  52.350  42.956  1.00  0.00     0.151 A 
ATOM      5  N   UNL     1      76.272  53.107  42.340  1.00  0.00    -0.178 NA
ATOM      6  C   UNL     1      79.023  50.667  42.154  1.00  0.00     0.262 A 
ATOM      7  O   UNL     1      79.556  50.344  43.208  1.00  0.00    -0.269 OA
ATOM      8  N   UNL     1      79.406  50.175  40.923  1.00  0.00    -0.310 N 
ATOM      9  C   UNL     1      78.862  50.593  39.713  1.00  0.00     0.117 A 
ATOM     10  N   UNL     1      77.887  51.454  39.607  1.00  0.00    -0.215 NA
ATOM     11  H   UNL     1      80.221  49.568  40.910  1.00  0.00     0.171 HD
ENDROOT
BRANCH   1  12
ATOM     12  C   UNL     1      75.613  53.502  40.040  1.00  0.00     0.114 C 
ATOM     13  C   UNL     1      74.335  52.720  39.725  1.00  0.00     0.056 C 
ATOM     14  C   UNL     1      73.504  53.480  38.704  1.00  0.00     0.162 C 
ATOM     15  O   UNL     1      73.221  54.800  39.166  1.00  0.00    -0.381 OA
ATOM     16  C   UNL     1      75.291  54.951  40.421  1.00  0.00     0.056 C 
ATOM     17  C   UNL     1      74.402  55.577  39.358  1.00  0.00     0.162 C 
ENDBRANCH   1  12
BRANCH   9  18
ATOM     18  C   UNL     1      79.450  49.944  38.481  1.00  0.00     0.131 C 
BRANCH  18  19
ATOM     19  C   UNL     1      80.347  50.889  37.728  1.00  0.00     0.048 A 
ATOM     20  C   UNL     1      80.247  51.024  36.347  1.00  0.00     0.024 A 
ATOM     21  N   UNL     1      81.215  51.622  38.476  1.00  0.00    -0.261 NA
ATOM     22  C   UNL     1      81.083  51.931  35.702  1.00  0.00     0.003 A 
ATOM     23  C   UNL     1      82.014  52.492  37.819  1.00  0.00     0.111 A 
ATOM     24  C   UNL     1      81.986  52.680  36.448  1.00  0.00     0.020 A 
ENDBRANCH  18  19
ENDBRANCH   9  18
TORSDOF 3
ENDMDL
MODEL 4
REMARK VINA RESULT:    -7.916      4.985      9.840
REMARK INTER + INTRA:         -10.083
REMARK INTER:                  -9.300
REMARK INTRA:                  -0.783
REMARK UNBOUND:                -0.779
REMARK SMILES O=c1[nH]c(Cc2ccccn2)nc2c1cnn2C1CCOCC1
REMARK SMILES IDX 17 1 13 2 14 3 15 4 16 5 2 6 1 7 3 8 4 9 12 10 18 12 19 13
REMARK SMILES IDX 20 14 21 15 23 16 22 17 5 18 6 19 7 20 11 21 8 22 10 23 9 24
REMARK H PARENT 3 11
ROOT
ATOM      1  N   UNL     1      82.023  49.310  33.751  1.00  0.00    -0.244 N 
ATOM      2  C   UNL     1      82.083  49.560  35.097  1.00  0.00     0.165 A 
ATOM      3  C   UNL     1      83.419  49.680  35.394  1.00  0.00     0.104 A 
ATOM      4  C   UNL     1      84.095  49.488  34.188  1.00  0.00     0.151 A 
ATOM      5  N   UNL     1      83.252  49.262  33.172  1.00  0.00    -0.178 NA
ATOM      6  C   UNL     1      83.810  49.940  36.748  1.00  0.00     0.262 A 
ATOM      7  O   UNL     1      84.972  50.021  37.128  1.00  0.00    -0.269 OA
ATOM      8  N   UNL     1      82.722  50.079  37.585  1.00  0.00    -0.310 N 
ATOM      9  C   UNL     1      81.401  49.912  37.182  1.00  0.00     0.117 A 
ATOM     10  N   UNL     1      81.037  49.663  35.954  1.00  0.00    -0.215 NA
ATOM     11  H   UNL     1      82.923  50.184  38.576  1.00  0.00     0.171 HD
ENDROOT
BRANCH   1  12
ATOM     12  C   UNL     1      80.846  49.095  32.922  1.00  0.00     0.114 C 
ATOM     13  C   UNL     1      80.073  50.387  32.647  1.00  0.00     0.056 C 
ATOM     14  C   UNL     1      78.866  50.089  31.771  1.00  0.00     0.162 C 
ATOM     15  O   UNL     1      79.267  49.441  30.565  1.00  0.00    -0.381 OA
ATOM     16  C   UNL     1      81.164  48.356  31.618  1.00  0.00     0.056 C 
ATOM     17  C   UNL     1      79.892  48.181  30.804  1.00  0.00     0.162 C 
ENDBRANCH   1  12
BRANCH   9  18
ATOM     18  C   UNL     1      80.367  50.082  38.271  1.00  0.00     0.131 C 
BRANCH  18  19
ATOM     19  C   UNL     1      80.987  50.029  39.641  1.00  0.00     0.048 A 
ATOM     20  C   UNL     1      80.872  51.100  40.522  1.00  0.00     0.024 A 
ATOM     21  N   UNL     1      81.618  48.869  39.973  1.00  0.00    -0.261 NA
ATOM     22  C   UNL     1      81.442  50.988  41.787  1.00  0.00     0.003 A 
ATOM     23  C   UNL     1      82.163  48.796  41.208  1.00  0.00     0.111 A 
ATOM     24  C   UNL     1      82.102  49.817  42.140  1.00  0.00     0.020 A 
ENDBRANCH  18  19
ENDBRANCH   9  18
TORSDOF 3
ENDMDL
MODEL 5
REMARK VINA RESULT:    -7.903      2.771      7.012
REMARK INTER + INTRA:         -10.068
REMARK INTER:                  -9.392
REMARK INTRA:                  -0.675
REMARK UNBOUND:                -0.779
REMARK SMILES O=c1[nH]c(Cc2ccccn2)nc2c1cnn2C1CCOCC1
REMARK SMILES IDX 17 1 13 2 14 3 15 4 16 5 2 6 1 7 3 8 4 9 12 10 18 12 19 13
REMARK SMILES IDX 20 14 21 15 23 16 22 17 5 18 6 19 7 20 11 21 8 22 10 23 9 24
REMARK H PARENT 3 11
ROOT
ATOM      1  N   UNL     1      80.332  50.622  41.600  1.00  0.00    -0.244 N 
ATOM      2  C   UNL     1      79.065  51.133  41.486  1.00  0.00     0.165 A 
ATOM      3  C   UNL     1      78.741  51.608  42.735  1.00  0.00     0.104 A 
ATOM      4  C   UNL     1      79.852  51.346  43.540  1.00  0.00     0.151 A 
ATOM      5  N   UNL     1      80.834  50.744  42.858  1.00  0.00    -0.178 NA
ATOM      6  C   UNL     1      77.455  52.205  42.940  1.00  0.00     0.262 A 
ATOM      7  O   UNL     1      77.050  52.618  44.019  1.00  0.00    -0.269 OA
ATOM      8  N   UNL     1      76.713  52.252  41.777  1.00  0.00    -0.310 N 
ATOM      9  C   UNL     1      77.129  51.716  40.564  1.00  0.00     0.117 A 
ATOM     10  N   UNL     1      78.294  51.159  40.371  1.00  0.00    -0.215 NA
ATOM     11  H   UNL     1      75.757  52.587  41.863  1.00  0.00     0.171 HD
ENDROOT
BRANCH   1  12
ATOM     12  C   UNL     1      81.149  49.992  40.574  1.00  0.00     0.114 C 
ATOM     13  C   UNL     1      81.573  50.968  39.473  1.00  0.00     0.056 C 
ATOM     14  C   UNL     1      82.428  50.244  38.445  1.00  0.00     0.162 C 
ATOM     15  O   UNL     1      83.551  49.624  39.070  1.00  0.00    -0.381 OA
ATOM     16  C   UNL     1      82.361  49.252  41.150  1.00  0.00     0.056 C 
ATOM     17  C   UNL     1      83.168  48.632  40.021  1.00  0.00     0.162 C 
ENDBRANCH   1  12
BRANCH   9  18
ATOM     18  C   UNL     1      76.146  51.853  39.424  1.00  0.00     0.131 C 
BRANCH  18  19
ATOM     19  C   UNL     1      75.476  53.201  39.427  1.00  0.00     0.048 A 
ATOM     20  C   UNL     1      74.145  53.340  39.047  1.00  0.00     0.024 A 
ATOM     21  N   UNL     1      76.229  54.248  39.859  1.00  0.00    -0.261 NA
ATOM     22  C   UNL     1      73.566  54.605  39.092  1.00  0.00     0.003 A 
ATOM     23  C   UNL     1      75.637  55.464  39.887  1.00  0.00     0.111 A 
ATOM     24  C   UNL     1      74.323  55.690  39.518  1.00  0.00     0.020 A 
ENDBRANCH  18  19
ENDBRANCH   9  18
TORSDOF 3
ENDMDL
MODEL 6
REMARK VINA RESULT:    -7.879      2.594      4.509
REMARK INTER + INTRA:         -10.039
REMARK INTER:                  -9.344
REMARK INTRA:                  -0.696
REMARK UNBOUND:                -0.779
REMARK SMILES O=c1[nH]c(Cc2ccccn2)nc2c1cnn2C1CCOCC1
REMARK SMILES IDX 17 1 13 2 14 3 15 4 16 5 2 6 1 7 3 8 4 9 12 10 18 12 19 13
REMARK SMILES IDX 20 14 21 15 23 16 22 17 5 18 6 19 7 20 11 21 8 22 10 23 9 24
REMARK H PARENT 3 11
ROOT
ATOM      1  N   UNL     1      81.066  50.656  41.984  1.00  0.00    -0.244 N 
ATOM      2  C   UNL     1      81.607  50.446  40.742  1.00  0.00     0.165 A 
ATOM      3  C   UNL     1      82.642  49.562  40.932  1.00  0.00     0.104 A 
ATOM      4  C   UNL     1      82.663  49.290  42.301  1.00  0.00     0.151 A 
ATOM      5  N   UNL     1      81.702  49.952  42.958  1.00  0.00    -0.178 NA
ATOM      6  C   UNL     1      83.418  49.147  39.802  1.00  0.00     0.262 A 
ATOM      7  O   UNL     1      84.386  48.400  39.865  1.00  0.00    -0.269 OA
ATOM      8  N   UNL     1      82.957  49.699  38.624  1.00  0.00    -0.310 N 
ATOM      9  C   UNL     1      81.909  50.611  38.547  1.00  0.00     0.117 A 
ATOM     10  N   UNL     1      81.204  51.003  39.573  1.00  0.00    -0.215 NA
ATOM     11  H   UNL     1      83.509  49.516  37.790  1.00  0.00     0.171 HD
ENDROOT
BRANCH   1  12
ATOM     12  C   UNL     1      79.947  51.511  42.351  1.00  0.00     0.114 C 
ATOM     13  C   UNL     1      78.624  51.052  41.731  1.00  0.00     0.056 C 
ATOM     14  C   UNL     1      77.502  51.984  42.163  1.00  0.00     0.162 C 
ATOM     15  O   UNL     1      77.428  52.057  43.586  1.00  0.00    -0.381 OA
ATOM     16  C   UNL     1      79.810  51.695  43.866  1.00  0.00     0.056 C 
ATOM     17  C   UNL     1      78.617  52.587  44.169  1.00  0.00     0.162 C 
ENDBRANCH   1  12
BRANCH   9  18
ATOM     18  C   UNL     1      81.587  51.111  37.158  1.00  0.00     0.131 C 
BRANCH  18  19
ATOM     19  C   UNL     1      82.450  50.452  36.115  1.00  0.00     0.048 A 
ATOM     20  C   UNL     1      81.914  49.535  35.217  1.00  0.00     0.024 A 
ATOM     21  N   UNL     1      83.755  50.836  36.081  1.00  0.00    -0.261 NA
ATOM     22  C   UNL     1      82.750  48.974  34.256  1.00  0.00     0.003 A 
ATOM     23  C   UNL     1      84.540  50.270  35.137  1.00  0.00     0.111 A 
ATOM     24  C   UNL     1      84.089  49.345  34.213  1.00  0.00     0.020 A 
ENDBRANCH  18  19
ENDBRANCH   9  18
TORSDOF 3
ENDMDL
MODEL 7
REMARK VINA RESULT:    -7.870      2.908      4.231
REMARK INTER + INTRA:         -10.029
REMARK INTER:                  -9.237
REMARK INTRA:                  -0.792
REMARK UNBOUND:                -0.779
REMARK SMILES O=c1[nH]c(Cc2ccccn2)nc2c1cnn2C1CCOCC1
REMARK SMILES IDX 17 1 13 2 14 3 15 4 16 5 2 6 1 7 3 8 4 9 12 10 18 12 19 13
REMARK SMILES IDX 20 14 21 15 23 16 22 17 5 18 6 19 7 20 11 21 8 22 10 23 9 24
REMARK H PARENT 3 11
ROOT
ATOM      1  N   UNL     1      78.448  51.666  41.570  1.00  0.00    -0.244 N 
ATOM      2  C   UNL     1      79.673  51.340  41.049  1.00  0.00     0.165 A 
ATOM      3  C   UNL     1      80.346  50.691  42.056  1.00  0.00     0.104 A 
ATOM      4  C   UNL     1      79.470  50.667  43.144  1.00  0.00     0.151 A 
ATOM      5  N   UNL     1      78.303  51.259  42.859  1.00  0.00    -0.178 NA
ATOM      6  C   UNL     1      81.679  50.226  41.816  1.00  0.00     0.262 A 
ATOM      7  O   UNL     1      82.381  49.677  42.656  1.00  0.00    -0.269 OA
ATOM      8  N   UNL     1      82.093  50.480  40.524  1.00  0.00    -0.310 N 
ATOM      9  C   UNL     1      81.336  51.173  39.585  1.00  0.00     0.117 A 
ATOM     10  N   UNL     1      80.125  51.610  39.799  1.00  0.00    -0.215 NA
ATOM     11  H   UNL     1      83.058  50.253  40.304  1.00  0.00     0.171 HD
ENDROOT
BRANCH   1  12
ATOM     12  C   UNL     1      77.348  52.368  40.926  1.00  0.00     0.114 C 
ATOM     13  C   UNL     1      76.678  51.538  39.828  1.00  0.00     0.056 C 
ATOM     14  C   UNL     1      75.537  52.328  39.208  1.00  0.00     0.162 C 
ATOM     15  O   UNL     1      74.607  52.740  40.208  1.00  0.00    -0.381 OA
ATOM     16  C   UNL     1      76.313  52.897  41.925  1.00  0.00     0.056 C 
ATOM     17  C   UNL     1      75.195  53.606  41.178  1.00  0.00     0.162 C 
ENDBRANCH   1  12
BRANCH   9  18
ATOM     18  C   UNL     1      81.994  51.363  38.238  1.00  0.00     0.131 C 
BRANCH  18  19
ATOM     19  C   UNL     1      82.469  50.057  37.660  1.00  0.00     0.048 A 
ATOM     20  C   UNL     1      81.670  49.327  36.786  1.00  0.00     0.024 A 
ATOM     21  N   UNL     1      83.724  49.664  38.008  1.00  0.00    -0.261 NA
ATOM     22  C   UNL     1      82.167  48.138  36.260  1.00  0.00     0.003 A 
ATOM     23  C   UNL     1      84.176  48.503  37.483  1.00  0.00     0.111 A 
ATOM     24  C   UNL     1      83.443  47.714  36.614  1.00  0.00     0.020 A 
ENDBRANCH  18  19
ENDBRANCH   9  18
TORSDOF 3
ENDMDL
MODEL 8
REMARK VINA RESULT:    -7.793      2.900      7.588
REMARK INTER + INTRA:          -9.939
REMARK INTER:                  -9.105
REMARK INTRA:                  -0.834
REMARK UNBOUND:                -0.779
REMARK SMILES O=c1[nH]c(Cc2ccccn2)nc2c1cnn2C1CCOCC1
REMARK SMILES IDX 17 1 13 2 14 3 15 4 16 5 2 6 1 7 3 8 4 9 12 10 18 12 19 13
REMARK SMILES IDX 20 14 21 15 23 16 22 17 5 18 6 19 7 20 11 21 8 22 10 23 9 24
REMARK H PARENT 3 11
ROOT
ATOM      1  N   UNL     1      81.031  51.157  39.694  1.00  0.00    -0.244 N 
ATOM      2  C   UNL     1      79.717  51.274  40.064  1.00  0.00     0.165 A 
ATOM      3  C   UNL     1      79.724  51.388  41.434  1.00  0.00     0.104 A 
ATOM      4  C   UNL     1      81.067  51.329  41.812  1.00  0.00     0.151 A 
ATOM      5  N   UNL     1      81.879  51.189  40.756  1.00  0.00    -0.178 NA
ATOM      6  C   UNL     1      78.478  51.521  42.128  1.00  0.00     0.262 A 
ATOM      7  O   UNL     1      78.369  51.584  43.346  1.00  0.00    -0.269 OA
ATOM      8  N   UNL     1      77.403  51.557  41.263  1.00  0.00    -0.310 N 
ATOM      9  C   UNL     1      77.506  51.406  39.884  1.00  0.00     0.117 A 
ATOM     10  N   UNL     1      78.636  51.273  39.245  1.00  0.00    -0.215 NA
ATOM     11  H   UNL     1      76.479  51.566  41.687  1.00  0.00     0.171 HD
ENDROOT
BRANCH   1  12
ATOM     12  C   UNL     1      81.584  51.004  38.357  1.00  0.00     0.114 C 
ATOM     13  C   UNL     1      82.001  52.339  37.732  1.00  0.00     0.056 C 
ATOM     14  C   UNL     1      82.576  52.102  36.345  1.00  0.00     0.162 C 
ATOM     15  O   UNL     1      83.661  51.177  36.401  1.00  0.00    -0.381 OA
ATOM     16  C   UNL     1      82.730  49.989  38.299  1.00  0.00     0.056 C 
ATOM     17  C   UNL     1      83.262  49.893  36.878  1.00  0.00     0.162 C 
ENDBRANCH   1  12
BRANCH   9  18
ATOM     18  C   UNL     1      76.197  51.449  39.129  1.00  0.00     0.131 C 
BRANCH  18  19
ATOM     19  C   UNL     1      75.529  52.792  39.251  1.00  0.00     0.048 A 
ATOM     20  C   UNL     1      74.213  52.977  38.838  1.00  0.00     0.024 A 
ATOM     21  N   UNL     1      76.266  53.784  39.821  1.00  0.00    -0.261 NA
ATOM     22  C   UNL     1      73.633  54.233  38.997  1.00  0.00     0.003 A 
ATOM     23  C   UNL     1      75.674  54.992  39.958  1.00  0.00     0.111 A 
ATOM     24  C   UNL     1      74.375  55.262  39.565  1.00  0.00     0.020 A 
ENDBRANCH  18  19
ENDBRANCH   9  18
TORSDOF 3
ENDMDL
MODEL 9
REMARK VINA RESULT:    -7.697      3.877      9.104
REMARK INTER + INTRA:          -9.825
REMARK INTER:                  -9.193
REMARK INTRA:                  -0.632
REMARK UNBOUND:                -0.779
REMARK SMILES O=c1[nH]c(Cc2ccccn2)nc2c1cnn2C1CCOCC1
REMARK SMILES IDX 17 1 13 2 14 3 15 4 16 5 2 6 1 7 3 8 4 9 12 10 18 12 19 13
REMARK SMILES IDX 20 14 21 15 23 16 22 17 5 18 6 19 7 20 11 21 8 22 10 23 9 24
REMARK H PARENT 3 11
ROOT
ATOM      1  N   UNL     1      81.793  49.064  35.155  1.00  0.00    -0.244 N 
ATOM      2  C   UNL     1      81.974  49.482  36.448  1.00  0.00     0.165 A 
ATOM      3  C   UNL     1      82.623  48.451  37.085  1.00  0.00     0.104 A 
ATOM      4  C   UNL     1      82.795  47.457  36.120  1.00  0.00     0.151 A 
ATOM      5  N   UNL     1      82.292  47.819  34.932  1.00  0.00    -0.178 NA
ATOM      6  C   UNL     1      82.951  48.587  38.473  1.00  0.00     0.262 A 
ATOM      7  O   UNL     1      83.487  47.715  39.145  1.00  0.00    -0.269 OA
ATOM      8  N   UNL     1      82.580  49.818  38.976  1.00  0.00    -0.310 N 
ATOM      9  C   UNL     1      81.899  50.786  38.246  1.00  0.00     0.117 A 
ATOM     10  N   UNL     1      81.586  50.666  36.985  1.00  0.00    -0.215 NA
ATOM     11  H   UNL     1      82.705  49.955  39.975  1.00  0.00     0.171 HD
ENDROOT
BRANCH   1  12
ATOM     12  C   UNL     1      81.152  49.772  34.057  1.00  0.00     0.114 C 
ATOM     13  C   UNL     1      81.693  49.353  32.687  1.00  0.00     0.056 C 
ATOM     14  C   UNL     1      80.973  50.124  31.592  1.00  0.00     0.162 C 
ATOM     15  O   UNL     1      79.562  49.939  31.688  1.00  0.00    -0.381 OA
ATOM     16  C   UNL     1      79.624  49.675  34.099  1.00  0.00     0.056 C 
ATOM     17  C   UNL     1      79.029  50.427  32.918  1.00  0.00     0.162 C 
ENDBRANCH   1  12
BRANCH   9  18
ATOM     18  C   UNL     1      81.565  52.051  39.002  1.00  0.00     0.131 C 
BRANCH  18  19
ATOM     19  C   UNL     1      80.600  51.788  40.127  1.00  0.00     0.048 A 
ATOM     20  C   UNL     1      81.033  51.755  41.449  1.00  0.00     0.024 A 
ATOM     21  N   UNL     1      79.295  51.630  39.778  1.00  0.00    -0.261 NA
ATOM     22  C   UNL     1      80.095  51.534  42.454  1.00  0.00     0.003 A 
ATOM     23  C   UNL     1      78.410  51.413  40.778  1.00  0.00     0.111 A 
ATOM     24  C   UNL     1      78.759  51.357  42.116  1.00  0.00     0.020 A 
ENDBRANCH  18  19
ENDBRANCH   9  18
TORSDOF 3
ENDMDL
MODEL 10
REMARK VINA RESULT:    -7.587      4.761      7.970
REMARK INTER + INTRA:          -9.696
REMARK INTER:                  -8.943
REMARK INTRA:                  -0.754
REMARK UNBOUND:                -0.779
REMARK SMILES O=c1[nH]c(Cc2ccccn2)nc2c1cnn2C1CCOCC1
REMARK SMILES IDX 17 1 13 2 14 3 15 4 16 5 2 6 1 7 3 8 4 9 12 10 18 12 19 13
REMARK SMILES IDX 20 14 21 15 23 16 22 17 5 18 6 19 7 20 11 21 8 22 10 23 9 24
REMARK H PARENT 3 11
ROOT
ATOM      1  N   UNL     1      72.590  52.743  39.067  1.00  0.00    -0.244 N 
ATOM      2  C   UNL     1      73.877  53.034  39.439  1.00  0.00     0.165 A 
ATOM      3  C   UNL     1      73.954  54.405  39.474  1.00  0.00     0.104 A 
ATOM      4  C   UNL     1      72.687  54.866  39.111  1.00  0.00     0.151 A 
ATOM      5  N   UNL     1      71.841  53.859  38.861  1.00  0.00    -0.178 NA
ATOM      6  C   UNL     1      75.197  55.024  39.829  1.00  0.00     0.262 A 
ATOM      7  O   UNL     1      75.386  56.233  39.847  1.00  0.00    -0.269 OA
ATOM      8  N   UNL     1      76.169  54.095  40.138  1.00  0.00    -0.310 N 
ATOM      9  C   UNL     1      75.991  52.718  40.045  1.00  0.00     0.117 A 
ATOM     10  N   UNL     1      74.867  52.147  39.711  1.00  0.00    -0.215 NA
ATOM     11  H   UNL     1      77.101  54.457  40.320  1.00  0.00     0.171 HD
ENDROOT
BRANCH   1  12
ATOM     12  C   UNL     1      71.977  51.438  38.874  1.00  0.00     0.114 C 
ATOM     13  C   UNL     1      70.452  51.512  38.758  1.00  0.00     0.056 C 
ATOM     14  C   UNL     1      69.883  50.117  38.549  1.00  0.00     0.162 C 
ATOM     15  O   UNL     1      70.475  49.497  37.409  1.00  0.00    -0.381 OA
ATOM     16  C   UNL     1      72.581  50.665  37.696  1.00  0.00     0.056 C 
ATOM     17  C   UNL     1      71.884  49.322  37.552  1.00  0.00     0.162 C 
ENDBRANCH   1  12
BRANCH   9  18
ATOM     18  C   UNL     1      77.199  51.884  40.405  1.00  0.00     0.131 C 
BRANCH  18  19
ATOM     19  C   UNL     1      77.520  51.975  41.872  1.00  0.00     0.048 A 
ATOM     20  C   UNL     1      78.660  51.372  42.395  1.00  0.00     0.024 A 
ATOM     21  N   UNL     1      76.663  52.708  42.634  1.00  0.00    -0.261 NA
ATOM     22  C   UNL     1      78.925  51.508  43.754  1.00  0.00     0.003 A 
ATOM     23  C   UNL     1      76.948  52.818  43.951  1.00  0.00     0.111 A 
ATOM     24  C   UNL     1      78.054  52.242  44.551  1.00  0.00     0.020 A 
ENDBRANCH  18  19
ENDBRANCH   9  18
TORSDOF 3
ENDMDL
MODEL 11
REMARK VINA RESULT:    -7.546      1.932      6.967
REMARK INTER + INTRA:          -9.648
REMARK INTER:                  -9.394
REMARK INTRA:                  -0.254
REMARK UNBOUND:                -0.779
REMARK SMILES O=c1[nH]c(Cc2ccccn2)nc2c1cnn2C1CCOCC1
REMARK SMILES IDX 17 1 13 2 14 3 15 4 16 5 2 6 1 7 3 8 4 9 12 10 18 12 19 13
REMARK SMILES IDX 20 14 21 15 23 16 22 17 5 18 6 19 7 20 11 21 8 22 10 23 9 24
REMARK H PARENT 3 11
ROOT
ATOM      1  N   UNL     1      79.086  50.792  39.451  1.00  0.00    -0.244 N 
ATOM      2  C   UNL     1      78.787  51.139  40.743  1.00  0.00     0.165 A 
ATOM      3  C   UNL     1      77.563  51.762  40.687  1.00  0.00     0.104 A 
ATOM      4  C   UNL     1      77.194  51.754  39.340  1.00  0.00     0.151 A 
ATOM      5  N   UNL     1      78.118  51.163  38.572  1.00  0.00    -0.178 NA
ATOM      6  C   UNL     1      76.976  52.252  41.898  1.00  0.00     0.262 A 
ATOM      7  O   UNL     1      75.914  52.860  41.955  1.00  0.00    -0.269 OA
ATOM      8  N   UNL     1      77.755  51.973  43.003  1.00  0.00    -0.310 N 
ATOM      9  C   UNL     1      78.999  51.355  42.944  1.00  0.00     0.117 A 
ATOM     10  N   UNL     1      79.547  50.916  41.844  1.00  0.00    -0.215 NA
ATOM     11  H   UNL     1      77.443  52.363  43.888  1.00  0.00     0.171 HD
ENDROOT
BRANCH   1  12
ATOM     12  C   UNL     1      80.271  50.113  38.948  1.00  0.00     0.114 C 
ATOM     13  C   UNL     1      81.392  51.082  38.565  1.00  0.00     0.056 C 
ATOM     14  C   UNL     1      82.596  50.304  38.059  1.00  0.00     0.162 C 
ATOM     15  O   UNL     1      83.024  49.351  39.030  1.00  0.00    -0.381 OA
ATOM     16  C   UNL     1      80.784  49.028  39.901  1.00  0.00     0.056 C 
ATOM     17  C   UNL     1      82.024  48.373  39.315  1.00  0.00     0.162 C 
ENDBRANCH   1  12
BRANCH   9  18
ATOM     18  C   UNL     1      79.694  51.172  44.274  1.00  0.00     0.131 C 
BRANCH  18  19
ATOM     19  C   UNL     1      79.290  52.231  45.263  1.00  0.00     0.048 A 
ATOM     20  C   UNL     1      79.725  53.546  45.123  1.00  0.00     0.024 A 
ATOM     21  N   UNL     1      78.453  51.838  46.261  1.00  0.00    -0.261 NA
ATOM     22  C   UNL     1      79.301  54.492  46.051  1.00  0.00     0.003 A 
ATOM     23  C   UNL     1      78.063  52.781  47.147  1.00  0.00     0.111 A 
ATOM     24  C   UNL     1      78.456  54.106  47.085  1.00  0.00     0.020 A 
ENDBRANCH  18  19
ENDBRANCH   9  18
TORSDOF 3
ENDMDL
MODEL 12
REMARK VINA RESULT:    -7.541      3.103      7.083
REMARK INTER + INTRA:          -9.642
REMARK INTER:                  -8.980
REMARK INTRA:                  -0.663
REMARK UNBOUND:                -0.779
REMARK SMILES O=c1[nH]c(Cc2ccccn2)nc2c1cnn2C1CCOCC1
REMARK SMILES IDX 17 1 13 2 14 3 15 4 16 5 2 6 1 7 3 8 4 9 12 10 18 12 19 13
REMARK SMILES IDX 20 14 21 15 23 16 22 17 5 18 6 19 7 20 11 21 8 22 10 23 9 24
REMARK H PARENT 3 11
ROOT
ATOM      1  N   UNL     1      79.857  50.888  41.001  1.00  0.00    -0.244 N 
ATOM      2  C   UNL     1      78.640  51.519  41.013  1.00  0.00     0.165 A 
ATOM      3  C   UNL     1      78.345  51.731  42.338  1.00  0.00     0.104 A 
ATOM      4  C   UNL     1      79.420  51.203  43.056  1.00  0.00     0.151 A 
ATOM      5  N   UNL     1      80.354  50.684  42.249  1.00  0.00    -0.178 NA
ATOM      6  C   UNL     1      77.113  52.377  42.682  1.00  0.00     0.262 A 
ATOM      7  O   UNL     1      76.733  52.574  43.829  1.00  0.00    -0.269 OA
ATOM      8  N   UNL     1      76.390  52.745  41.565  1.00  0.00    -0.310 N 
ATOM      9  C   UNL     1      76.772  52.456  40.259  1.00  0.00     0.117 A 
ATOM     10  N   UNL     1      77.886  51.858  39.938  1.00  0.00    -0.215 NA
ATOM     11  H   UNL     1      75.466  53.134  41.731  1.00  0.00     0.171 HD
ENDROOT
BRANCH   1  12
ATOM     12  C   UNL     1      80.627  50.432  39.853  1.00  0.00     0.114 C 
ATOM     13  C   UNL     1      81.449  51.552  39.209  1.00  0.00     0.056 C 
ATOM     14  C   UNL     1      82.232  51.002  38.027  1.00  0.00     0.162 C 
ATOM     15  O   UNL     1      83.050  49.906  38.431  1.00  0.00    -0.381 OA
ATOM     16  C   UNL     1      81.507  49.218  40.172  1.00  0.00     0.056 C 
ATOM     17  C   UNL     1      82.287  48.809  38.932  1.00  0.00     0.162 C 
ENDBRANCH   1  12
BRANCH   9  18
ATOM     18  C   UNL     1      75.817  52.927  39.187  1.00  0.00     0.131 C 
BRANCH  18  19
ATOM     19  C   UNL     1      74.624  52.016  39.066  1.00  0.00     0.048 A 
ATOM     20  C   UNL     1      73.351  52.451  39.419  1.00  0.00     0.024 A 
ATOM     21  N   UNL     1      74.861  50.777  38.556  1.00  0.00    -0.261 NA
ATOM     22  C   UNL     1      72.279  51.578  39.263  1.00  0.00     0.003 A 
ATOM     23  C   UNL     1      73.798  49.952  38.420  1.00  0.00     0.111 A 
ATOM     24  C   UNL     1      72.503  50.303  38.756  1.00  0.00     0.020 A 
ENDBRANCH  18  19
ENDBRANCH   9  18
TORSDOF 3
ENDMDL
MODEL 13
REMARK VINA RESULT:    -7.491      2.322      2.947
REMARK INTER + INTRA:          -9.583
REMARK INTER:                  -9.225
REMARK INTRA:                  -0.359
REMARK UNBOUND:                -0.779
REMARK SMILES O=c1[nH]c(Cc2ccccn2)nc2c1cnn2C1CCOCC1
REMARK SMILES IDX 17 1 13 2 14 3 15 4 16 5 2 6 1 7 3 8 4 9 12 10 18 12 19 13
REMARK SMILES IDX 20 14 21 15 23 16 22 17 5 18 6 19 7 20 11 21 8 22 10 23 9 24
REMARK H PARENT 3 11
ROOT
ATOM      1  N   UNL     1      77.300  52.340  42.346  1.00  0.00    -0.244 N 
ATOM      2  C   UNL     1      77.448  51.875  41.065  1.00  0.00     0.165 A 
ATOM      3  C   UNL     1      76.360  52.346  40.370  1.00  0.00     0.104 A 
ATOM      4  C   UNL     1      75.608  53.077  41.292  1.00  0.00     0.151 A 
ATOM      5  N   UNL     1      76.172  53.083  42.506  1.00  0.00    -0.178 NA
ATOM      6  C   UNL     1      76.225  52.016  38.982  1.00  0.00     0.262 A 
ATOM      7  O   UNL     1      75.275  52.346  38.283  1.00  0.00    -0.269 OA
ATOM      8  N   UNL     1      77.289  51.268  38.520  1.00  0.00    -0.310 N 
ATOM      9  C   UNL     1      78.334  50.820  39.321  1.00  0.00     0.117 A 
ATOM     10  N   UNL     1      78.458  51.105  40.589  1.00  0.00    -0.215 NA
ATOM     11  H   UNL     1      77.223  50.927  37.565  1.00  0.00     0.171 HD
ENDROOT
BRANCH   1  12
ATOM     12  C   UNL     1      78.171  52.128  43.492  1.00  0.00     0.114 C 
ATOM     13  C   UNL     1      77.462  52.367  44.827  1.00  0.00     0.056 C 
ATOM     14  C   UNL     1      78.428  52.119  45.975  1.00  0.00     0.162 C 
ATOM     15  O   UNL     1      78.981  50.807  45.894  1.00  0.00    -0.381 OA
ATOM     16  C   UNL     1      78.858  50.758  43.472  1.00  0.00     0.056 C 
ATOM     17  C   UNL     1      79.739  50.607  44.701  1.00  0.00     0.162 C 
ENDBRANCH   1  12
BRANCH   9  18
ATOM     18  C   UNL     1      79.381  49.990  38.615  1.00  0.00     0.131 C 
BRANCH  18  19
ATOM     19  C   UNL     1      80.295  50.844  37.778  1.00  0.00     0.048 A 
ATOM     20  C   UNL     1      81.553  51.215  38.243  1.00  0.00     0.024 A 
ATOM     21  N   UNL     1      79.839  51.187  36.543  1.00  0.00    -0.261 NA
ATOM     22  C   UNL     1      82.370  51.983  37.418  1.00  0.00     0.003 A 
ATOM     23  C   UNL     1      80.656  51.936  35.769  1.00  0.00     0.111 A 
ATOM     24  C   UNL     1      81.916  52.354  36.158  1.00  0.00     0.020 A 
ENDBRANCH  18  19
ENDBRANCH   9  18
TORSDOF 3
ENDMDL
MODEL 14
REMARK VINA RESULT:    -7.432      2.673      4.721
REMARK INTER + INTRA:          -9.514
REMARK INTER:                  -8.678
REMARK INTRA:                  -0.836
REMARK UNBOUND:                -0.779
REMARK SMILES O=c1[nH]c(Cc2ccccn2)nc2c1cnn2C1CCOCC1
REMARK SMILES IDX 17 1 13 2 14 3 15 4 16 5 2 6 1 7 3 8 4 9 12 10 18 12 19 13
REMARK SMILES IDX 20 14 21 15 23 16 22 17 5 18 6 19 7 20 11 21 8 22 10 23 9 24
REMARK H PARENT 3 11
ROOT
ATOM      1  N   UNL     1      79.149  51.415  43.187  1.00  0.00    -0.244 N 
ATOM      2  C   UNL     1      78.635  51.418  41.916  1.00  0.00     0.165 A 
ATOM      3  C   UNL     1      79.567  50.778  41.135  1.00  0.00     0.104 A 
ATOM      4  C   UNL     1      80.606  50.424  41.999  1.00  0.00     0.151 A 
ATOM      5  N   UNL     1      80.363  50.807  43.259  1.00  0.00    -0.178 NA
ATOM      6  C   UNL     1      79.315  50.627  39.733  1.00  0.00     0.262 A 
ATOM      7  O   UNL     1      80.096  50.113  38.942  1.00  0.00    -0.269 OA
ATOM      8  N   UNL     1      78.087  51.141  39.368  1.00  0.00    -0.310 N 
ATOM      9  C   UNL     1      77.225  51.797  40.241  1.00  0.00     0.117 A 
ATOM     10  N   UNL     1      77.452  51.949  41.517  1.00  0.00    -0.215 NA
ATOM     11  H   UNL     1      77.874  51.144  38.374  1.00  0.00     0.171 HD
ENDROOT
BRANCH   1  12
ATOM     12  C   UNL     1      78.567  51.970  44.400  1.00  0.00     0.114 C 
ATOM     13  C   UNL     1      78.445  50.938  45.523  1.00  0.00     0.056 C 
ATOM     14  C   UNL     1      77.840  51.588  46.757  1.00  0.00     0.162 C 
ATOM     15  O   UNL     1      78.608  52.722  47.157  1.00  0.00    -0.381 OA
ATOM     16  C   UNL     1      79.294  53.229  44.886  1.00  0.00     0.056 C 
ATOM     17  C   UNL     1      78.638  53.741  46.158  1.00  0.00     0.162 C 
ENDBRANCH   1  12
BRANCH   9  18
ATOM     18  C   UNL     1      75.944  52.306  39.623  1.00  0.00     0.131 C 
BRANCH  18  19
ATOM     19  C   UNL     1      75.481  51.424  38.494  1.00  0.00     0.048 A 
ATOM     20  C   UNL     1      75.142  51.963  37.257  1.00  0.00     0.024 A 
ATOM     21  N   UNL     1      75.458  50.086  38.743  1.00  0.00    -0.261 NA
ATOM     22  C   UNL     1      74.746  51.100  36.239  1.00  0.00     0.003 A 
ATOM     23  C   UNL     1      75.066  49.277  37.734  1.00  0.00     0.111 A 
ATOM     24  C   UNL     1      74.704  49.732  36.478  1.00  0.00     0.020 A 
ENDBRANCH  18  19
ENDBRANCH   9  18
TORSDOF 3
ENDMDL
MODEL 15
REMARK VINA RESULT:    -7.425      4.943      8.053
REMARK INTER + INTRA:          -9.505
REMARK INTER:                  -8.730
REMARK INTRA:                  -0.776
REMARK UNBOUND:                -0.779
REMARK SMILES O=c1[nH]c(Cc2ccccn2)nc2c1cnn2C1CCOCC1
REMARK SMILES IDX 17 1 13 2 14 3 15 4 16 5 2 6 1 7 3 8 4 9 12 10 18 12 19 13
REMARK SMILES IDX 20 14 21 15 23 16 22 17 5 18 6 19 7 20 11 21 8 22 10 23 9 24
REMARK H PARENT 3 11
ROOT
ATOM      1  N   UNL     1      83.027  49.654  37.743  1.00  0.00    -0.244 N 
ATOM      2  C   UNL     1      82.677  49.756  36.422  1.00  0.00     0.165 A 
ATOM      3  C   UNL     1      83.810  49.437  35.712  1.00  0.00     0.104 A 
ATOM      4  C   UNL     1      84.791  49.161  36.666  1.00  0.00     0.151 A 
ATOM      5  N   UNL     1      84.325  49.289  37.915  1.00  0.00    -0.178 NA
ATOM      6  C   UNL     1      83.763  49.461  34.280  1.00  0.00     0.262 A 
ATOM      7  O   UNL     1      84.724  49.238  33.554  1.00  0.00    -0.269 OA
ATOM      8  N   UNL     1      82.506  49.778  33.807  1.00  0.00    -0.310 N 
ATOM      9  C   UNL     1      81.428  50.110  34.619  1.00  0.00     0.117 A 
ATOM     10  N   UNL     1      81.464  50.103  35.924  1.00  0.00    -0.215 NA
ATOM     11  H   UNL     1      82.417  49.894  32.801  1.00  0.00     0.171 HD
ENDROOT
BRANCH   1  12
ATOM     12  C   UNL     1      82.201  49.890  38.918  1.00  0.00     0.114 C 
ATOM     13  C   UNL     1      82.761  49.225  40.179  1.00  0.00     0.056 C 
ATOM     14  C   UNL     1      81.854  49.521  41.363  1.00  0.00     0.162 C 
ATOM     15  O   UNL     1      81.688  50.927  41.532  1.00  0.00    -0.381 OA
ATOM     16  C   UNL     1      81.920  51.377  39.159  1.00  0.00     0.056 C 
ATOM     17  C   UNL     1      81.065  51.543  40.405  1.00  0.00     0.162 C 
ENDBRANCH   1  12
BRANCH   9  18
ATOM     18  C   UNL     1      80.149  50.451  33.889  1.00  0.00     0.131 C 
BRANCH  18  19
ATOM     19  C   UNL     1      79.982  49.623  32.643  1.00  0.00     0.048 A 
ATOM     20  C   UNL     1      79.111  48.538  32.616  1.00  0.00     0.024 A 
ATOM     21  N   UNL     1      80.690  50.024  31.553  1.00  0.00    -0.261 NA
ATOM     22  C   UNL     1      78.974  47.822  31.431  1.00  0.00     0.003 A 
ATOM     23  C   UNL     1      80.536  49.304  30.419  1.00  0.00     0.111 A 
ATOM     24  C   UNL     1      79.700  48.207  30.310  1.00  0.00     0.020 A 
ENDBRANCH  18  19
ENDBRANCH   9  18
TORSDOF 3
ENDMDL
MODEL 16
REMARK VINA RESULT:    -7.357      3.249      5.229
REMARK INTER + INTRA:          -9.426
REMARK INTER:                  -8.598
REMARK INTRA:                  -0.827
REMARK UNBOUND:                -0.779
REMARK SMILES O=c1[nH]c(Cc2ccccn2)nc2c1cnn2C1CCOCC1
REMARK SMILES IDX 17 1 13 2 14 3 15 4 16 5 2 6 1 7 3 8 4 9 12 10 18 12 19 13
REMARK SMILES IDX 20 14 21 15 23 16 22 17 5 18 6 19 7 20 11 21 8 22 10 23 9 24
REMARK H PARENT 3 11
ROOT
ATOM      1  N   UNL     1      81.214  50.480  41.027  1.00  0.00    -0.244 N 
ATOM      2  C   UNL     1      81.661  50.593  39.736  1.00  0.00     0.165 A 
ATOM      3  C   UNL     1      82.590  49.593  39.575  1.00  0.00     0.104 A 
ATOM      4  C   UNL     1      82.650  48.929  40.802  1.00  0.00     0.151 A 
ATOM      5  N   UNL     1      81.811  49.462  41.701  1.00  0.00    -0.178 NA
ATOM      6  C   UNL     1      83.251  49.454  38.312  1.00  0.00     0.262 A 
ATOM      7  O   UNL     1      84.125  48.629  38.077  1.00  0.00    -0.269 OA
ATOM      8  N   UNL     1      82.799  50.372  37.385  1.00  0.00    -0.310 N 
ATOM      9  C   UNL     1      81.866  51.365  37.663  1.00  0.00     0.117 A 
ATOM     10  N   UNL     1      81.268  51.506  38.814  1.00  0.00    -0.215 NA
ATOM     11  H   UNL     1      83.281  50.388  36.491  1.00  0.00     0.171 HD
ENDROOT
BRANCH   1  12
ATOM     12  C   UNL     1      80.227  51.297  41.717  1.00  0.00     0.114 C 
ATOM     13  C   UNL     1      78.793  50.991  41.276  1.00  0.00     0.056 C 
ATOM     14  C   UNL     1      77.819  51.872  42.042  1.00  0.00     0.162 C 
ATOM     15  O   UNL     1      77.990  51.708  43.448  1.00  0.00    -0.381 OA
ATOM     16  C   UNL     1      80.359  51.229  43.242  1.00  0.00     0.056 C 
ATOM     17  C   UNL     1      79.291  52.095  43.890  1.00  0.00     0.162 C 
ENDBRANCH   1  12
BRANCH   9  18
ATOM     18  C   UNL     1      81.534  52.281  36.508  1.00  0.00     0.131 C 
BRANCH  18  19
ATOM     19  C   UNL     1      80.708  51.582  35.462  1.00  0.00     0.048 A 
ATOM     20  C   UNL     1      79.417  52.008  35.166  1.00  0.00     0.024 A 
ATOM     21  N   UNL     1      81.309  50.552  34.807  1.00  0.00    -0.261 NA
ATOM     22  C   UNL     1      78.705  51.343  34.172  1.00  0.00     0.003 A 
ATOM     23  C   UNL     1      80.589  49.926  33.849  1.00  0.00     0.111 A 
ATOM     24  C   UNL     1      79.298  50.280  33.500  1.00  0.00     0.020 A 
ENDBRANCH  18  19
ENDBRANCH   9  18
TORSDOF 3
ENDMDL
MODEL 17
REMARK VINA RESULT:    -7.313      2.085      4.943
REMARK INTER + INTRA:          -9.374
REMARK INTER:                  -9.127
REMARK INTRA:                  -0.247
REMARK UNBOUND:                -0.779
REMARK SMILES O=c1[nH]c(Cc2ccccn2)nc2c1cnn2C1CCOCC1
REMARK SMILES IDX 17 1 13 2 14 3 15 4 16 5 2 6 1 7 3 8 4 9 12 10 18 12 19 13
REMARK SMILES IDX 20 14 21 15 23 16 22 17 5 18 6 19 7 20 11 21 8 22 10 23 9 24
REMARK H PARENT 3 11
ROOT
ATOM      1  N   UNL     1      79.630  51.003  43.304  1.00  0.00    -0.244 N 
ATOM      2  C   UNL     1      79.346  50.689  42.000  1.00  0.00     0.165 A 
ATOM      3  C   UNL     1      80.461  50.045  41.520  1.00  0.00     0.104 A 
ATOM      4  C   UNL     1      81.367  50.012  42.583  1.00  0.00     0.151 A 
ATOM      5  N   UNL     1      80.870  50.595  43.682  1.00  0.00    -0.178 NA
ATOM      6  C   UNL     1      80.473  49.592  40.161  1.00  0.00     0.262 A 
ATOM      7  O   UNL     1      81.430  49.049  39.622  1.00  0.00    -0.269 OA
ATOM      8  N   UNL     1      79.280  49.850  39.517  1.00  0.00    -0.310 N 
ATOM      9  C   UNL     1      78.216  50.536  40.093  1.00  0.00     0.117 A 
ATOM     10  N   UNL     1      78.201  50.963  41.326  1.00  0.00    -0.215 NA
ATOM     11  H   UNL     1      79.243  49.632  38.526  1.00  0.00     0.171 HD
ENDROOT
BRANCH   1  12
ATOM     12  C   UNL     1      78.792  51.695  44.271  1.00  0.00     0.114 C 
ATOM     13  C   UNL     1      78.585  50.892  45.557  1.00  0.00     0.056 C 
ATOM     14  C   UNL     1      77.710  51.678  46.521  1.00  0.00     0.162 C 
ATOM     15  O   UNL     1      78.274  52.963  46.780  1.00  0.00    -0.381 OA
ATOM     16  C   UNL     1      79.287  53.112  44.581  1.00  0.00     0.056 C 
ATOM     17  C   UNL     1      78.371  53.764  45.603  1.00  0.00     0.162 C 
ENDBRANCH   1  12
BRANCH   9  18
ATOM     18  C   UNL     1      77.014  50.734  39.198  1.00  0.00     0.131 C 
BRANCH  18  19
ATOM     19  C   UNL     1      76.242  51.972  39.568  1.00  0.00     0.048 A 
ATOM     20  C   UNL     1      74.851  51.974  39.577  1.00  0.00     0.024 A 
ATOM     21  N   UNL     1      76.980  53.058  39.928  1.00  0.00    -0.261 NA
ATOM     22  C   UNL     1      74.187  53.138  39.952  1.00  0.00     0.003 A 
ATOM     23  C   UNL     1      76.304  54.173  40.283  1.00  0.00     0.111 A 
ATOM     24  C   UNL     1      74.923  54.261  40.310  1.00  0.00     0.020 A 
ENDBRANCH  18  19
ENDBRANCH   9  18
TORSDOF 3
ENDMDL
MODEL 18
REMARK VINA RESULT:    -7.303      3.486      6.673
REMARK INTER + INTRA:          -9.363
REMARK INTER:                  -8.926
REMARK INTRA:                  -0.436
REMARK UNBOUND:                -0.779
REMARK SMILES O=c1[nH]c(Cc2ccccn2)nc2c1cnn2C1CCOCC1
REMARK SMILES IDX 17 1 13 2 14 3 15 4 16 5 2 6 1 7 3 8 4 9 12 10 18 12 19 13
REMARK SMILES IDX 20 14 21 15 23 16 22 17 5 18 6 19 7 20 11 21 8 22 10 23 9 24
REMARK H PARENT 3 11
ROOT
ATOM      1  N   UNL     1      78.249  51.135  41.193  1.00  0.00    -0.244 N 
ATOM      2  C   UNL     1      77.416  51.704  40.265  1.00  0.00     0.165 A 
ATOM      3  C   UNL     1      77.462  50.879  39.167  1.00  0.00     0.104 A 
ATOM      4  C   UNL     1      78.337  49.845  39.506  1.00  0.00     0.151 A 
ATOM      5  N   UNL     1      78.826  49.988  40.745  1.00  0.00    -0.178 NA
ATOM      6  C   UNL     1      76.689  51.217  38.010  1.00  0.00     0.262 A 
ATOM      7  O   UNL     1      76.692  50.577  36.966  1.00  0.00    -0.269 OA
ATOM      8  N   UNL     1      75.943  52.363  38.200  1.00  0.00    -0.310 N 
ATOM      9  C   UNL     1      75.991  53.143  39.351  1.00  0.00     0.117 A 
ATOM     10  N   UNL     1      76.701  52.849  40.405  1.00  0.00    -0.215 NA
ATOM     11  H   UNL     1      75.432  52.711  37.393  1.00  0.00     0.171 HD
ENDROOT
BRANCH   1  12
ATOM     12  C   UNL     1      78.568  51.606  42.533  1.00  0.00     0.114 C 
ATOM     13  C   UNL     1      77.366  52.240  43.239  1.00  0.00     0.056 C 
ATOM     14  C   UNL     1      77.770  52.699  44.631  1.00  0.00     0.162 C 
ATOM     15  O   UNL     1      78.317  51.615  45.380  1.00  0.00    -0.381 OA
ATOM     16  C   UNL     1      79.211  50.524  43.406  1.00  0.00     0.056 C 
ATOM     17  C   UNL     1      79.503  51.086  44.789  1.00  0.00     0.162 C 
ENDBRANCH   1  12
BRANCH   9  18
ATOM     18  C   UNL     1      75.112  54.372  39.336  1.00  0.00     0.131 C 
BRANCH  18  19
ATOM     19  C   UNL     1      73.651  54.012  39.284  1.00  0.00     0.048 A 
ATOM     20  C   UNL     1      72.690  54.961  38.952  1.00  0.00     0.024 A 
ATOM     21  N   UNL     1      73.342  52.711  39.536  1.00  0.00    -0.261 NA
ATOM     22  C   UNL     1      71.356  54.569  38.893  1.00  0.00     0.003 A 
ATOM     23  C   UNL     1      72.036  52.364  39.473  1.00  0.00     0.111 A 
ATOM     24  C   UNL     1      71.019  53.248  39.160  1.00  0.00     0.020 A 
ENDBRANCH  18  19
ENDBRANCH   9  18
TORSDOF 3
ENDMDL
MODEL 19
REMARK VINA RESULT:    -7.244      3.229      5.197
REMARK INTER + INTRA:          -9.293
REMARK INTER:                  -8.552
REMARK INTRA:                  -0.741
REMARK UNBOUND:                -0.779
REMARK SMILES O=c1[nH]c(Cc2ccccn2)nc2c1cnn2C1CCOCC1
REMARK SMILES IDX 17 1 13 2 14 3 15 4 16 5 2 6 1 7 3 8 4 9 12 10 18 12 19 13
REMARK SMILES IDX 20 14 21 15 23 16 22 17 5 18 6 19 7 20 11 21 8 22 10 23 9 24
REMARK H PARENT 3 11
ROOT
ATOM      1  N   UNL     1      79.433  50.655  40.628  1.00  0.00    -0.244 N 
ATOM      2  C   UNL     1      80.554  49.900  40.399  1.00  0.00     0.165 A 
ATOM      3  C   UNL     1      81.325  50.025  41.529  1.00  0.00     0.104 A 
ATOM      4  C   UNL     1      80.610  50.866  42.385  1.00  0.00     0.151 A 
ATOM      5  N   UNL     1      79.448  51.258  41.847  1.00  0.00    -0.178 NA
ATOM      6  C   UNL     1      82.584  49.346  41.591  1.00  0.00     0.262 A 
ATOM      7  O   UNL     1      83.367  49.425  42.530  1.00  0.00    -0.269 OA
ATOM      8  N   UNL     1      82.826  48.594  40.459  1.00  0.00    -0.310 N 
ATOM      9  C   UNL     1      81.983  48.558  39.353  1.00  0.00     0.117 A 
ATOM     10  N   UNL     1      80.840  49.183  39.283  1.00  0.00    -0.215 NA
ATOM     11  H   UNL     1      83.737  48.150  40.395  1.00  0.00     0.171 HD
ENDROOT
BRANCH   1  12
ATOM     12  C   UNL     1      78.293  50.873  39.750  1.00  0.00     0.114 C 
ATOM     13  C   UNL     1      77.566  49.574  39.392  1.00  0.00     0.056 C 
ATOM     14  C   UNL     1      76.386  49.878  38.483  1.00  0.00     0.162 C 
ATOM     15  O   UNL     1      75.513  50.828  39.091  1.00  0.00    -0.381 OA
ATOM     16  C   UNL     1      77.315  51.919  40.293  1.00  0.00     0.056 C 
ATOM     17  C   UNL     1      76.150  52.082  39.329  1.00  0.00     0.162 C 
ENDBRANCH   1  12
BRANCH   9  18
ATOM     18  C   UNL     1      82.454  47.691  38.209  1.00  0.00     0.131 C 
BRANCH  18  19
ATOM     19  C   UNL     1      83.133  48.503  37.139  1.00  0.00     0.048 A 
ATOM     20  C   UNL     1      82.875  48.271  35.791  1.00  0.00     0.024 A 
ATOM     21  N   UNL     1      83.968  49.488  37.567  1.00  0.00    -0.261 NA
ATOM     22  C   UNL     1      83.509  49.067  34.843  1.00  0.00     0.003 A 
ATOM     23  C   UNL     1      84.571  50.242  36.619  1.00  0.00     0.111 A 
ATOM     24  C   UNL     1      84.375  50.071  35.260  1.00  0.00     0.020 A 
ENDBRANCH  18  19
ENDBRANCH   9  18
TORSDOF 3
ENDMDL
MODEL 20
REMARK VINA RESULT:    -7.087      3.931      7.960
REMARK INTER + INTRA:          -9.109
REMARK INTER:                  -8.316
REMARK INTRA:                  -0.792
REMARK UNBOUND:                -0.779
REMARK SMILES O=c1[nH]c(Cc2ccccn2)nc2c1cnn2C1CCOCC1
REMARK SMILES IDX 17 1 13 2 14 3 15 4 16 5 2 6 1 7 3 8 4 9 12 10 18 12 19 13
REMARK SMILES IDX 20 14 21 15 23 16 22 17 5 18 6 19 7 20 11 21 8 22 10 23 9 24
REMARK H PARENT 3 11
ROOT
ATOM      1  N   UNL     1      82.317  49.890  38.866  1.00  0.00    -0.244 N 
ATOM      2  C   UNL     1      80.983  50.189  38.770  1.00  0.00     0.165 A 
ATOM      3  C   UNL     1      80.605  50.617  40.020  1.00  0.00     0.104 A 
ATOM      4  C   UNL     1      81.756  50.546  40.808  1.00  0.00     0.151 A 
ATOM      5  N   UNL     1      82.812  50.104  40.114  1.00  0.00    -0.178 NA
ATOM      6  C   UNL     1      79.243  51.001  40.242  1.00  0.00     0.262 A 
ATOM      7  O   UNL     1      78.793  51.354  41.325  1.00  0.00    -0.269 OA
ATOM      8  N   UNL     1      78.485  50.916  39.091  1.00  0.00    -0.310 N 
ATOM      9  C   UNL     1      78.965  50.442  37.875  1.00  0.00     0.117 A 
ATOM     10  N   UNL     1      80.200  50.079  37.667  1.00  0.00    -0.215 NA
ATOM     11  H   UNL     1      77.489  51.094  39.190  1.00  0.00     0.171 HD
ENDROOT
BRANCH   1  12
ATOM     12  C   UNL     1      83.209  49.389  37.832  1.00  0.00     0.114 C 
ATOM     13  C   UNL     1      83.621  50.472  36.830  1.00  0.00     0.056 C 
ATOM     14  C   UNL     1      84.556  49.881  35.788  1.00  0.00     0.162 C 
ATOM     15  O   UNL     1      85.687  49.274  36.412  1.00  0.00    -0.381 OA
ATOM     16  C   UNL     1      84.438  48.672  38.402  1.00  0.00     0.056 C 
ATOM     17  C   UNL     1      85.324  48.189  37.264  1.00  0.00     0.162 C 
ENDBRANCH   1  12
BRANCH   9  18
ATOM     18  C   UNL     1      77.955  50.407  36.751  1.00  0.00     0.131 C 
BRANCH  18  19
ATOM     19  C   UNL     1      76.542  50.432  37.271  1.00  0.00     0.048 A 
ATOM     20  C   UNL     1      75.700  51.507  37.006  1.00  0.00     0.024 A 
ATOM     21  N   UNL     1      76.137  49.336  37.969  1.00  0.00    -0.261 NA
ATOM     22  C   UNL     1      74.395  51.468  37.488  1.00  0.00     0.003 A 
ATOM     23  C   UNL     1      74.864  49.332  38.426  1.00  0.00     0.111 A 
ATOM     24  C   UNL     1      73.966  50.362  38.214  1.00  0.00     0.020 A 
ENDBRANCH  18  19
ENDBRANCH   9  18
TORSDOF 3
ENDMDL
