MODEL 1
REMARK VINA RESULT:    -8.305      0.000      0.000
REMARK INTER + INTRA:          -9.945
REMARK INTER:                  -9.762
REMARK INTRA:                  -0.184
REMARK UNBOUND:                -0.184
REMARK SMILES CN1C(N)=N[C@](C)(c2cc(NC(=O)c3ccc(F)cn3)ccc2F)CS1(=O)=O
REMARK SMILES IDX 8 1 9 2 10 3 21 4 22 5 23 6 24 7 6 8 25 9 5 10 26 11 3 12
REMARK SMILES IDX 27 13 2 14 28 15 4 16 7 17 1 18 11 21 12 22 13 23 14 25
REMARK SMILES IDX 20 26 15 27 19 28 16 29 17 30 18 31
REMARK H PARENT 4 19 4 20 11 24
ROOT
ATOM      1  C   UNL     1      23.984  12.559  20.751  1.00  0.00     0.018 A 
ATOM      2  C   UNL     1      23.469  12.301  22.021  1.00  0.00     0.035 A 
ATOM      3  C   UNL     1      22.655  11.222  22.280  1.00  0.00     0.042 A 
ATOM      4  C   UNL     1      22.296  10.351  21.259  1.00  0.00     0.029 A 
ATOM      5  C   UNL     1      22.800  10.590  19.993  1.00  0.00     0.042 A 
ATOM      6  C   UNL     1      23.642  11.658  19.755  1.00  0.00     0.129 A 
ATOM      7  F   UNL     1      24.147  11.853  18.509  1.00  0.00    -0.207 F 
ENDROOT
BRANCH   1   8
ATOM      8  C   UNL     1      24.884  13.759  20.497  1.00  0.00     0.105 C 
ATOM      9  C   UNL     1      26.215  13.437  19.855  1.00  0.00     0.195 C 
ATOM     10  N   UNL     1      25.089  14.556  21.706  1.00  0.00    -0.240 NA
ATOM     11  S   UNL     1      27.198  12.419  20.927  1.00  0.00     0.239 S 
ATOM     12  C   UNL     1      25.966  14.223  22.601  1.00  0.00     0.205 C 
ATOM     13  O   UNL     1      28.586  12.697  20.603  1.00  0.00    -0.206 OA
ATOM     14  N   UNL     1      26.874  13.151  22.451  1.00  0.00    -0.243 N 
ATOM     15  O   UNL     1      26.651  11.105  21.055  1.00  0.00    -0.206 OA
ATOM     16  N   UNL     1      26.107  14.910  23.777  1.00  0.00    -0.369 N 
ATOM     17  C   UNL     1      24.159  14.732  19.564  1.00  0.00     0.044 C 
ATOM     18  C   UNL     1      27.781  12.707  23.529  1.00  0.00     0.167 C 
ATOM     19  H   UNL     1      25.519  15.675  23.974  1.00  0.00     0.159 HD
ATOM     20  H   UNL     1      26.797  14.639  24.426  1.00  0.00     0.159 HD
ENDBRANCH   1   8
BRANCH   3  21
ATOM     21  N   UNL     1      22.204  11.079  23.599  1.00  0.00    -0.321 N 
ATOM     22  C   UNL     1      22.916  11.249  24.772  1.00  0.00     0.274 C 
ATOM     23  O   UNL     1      24.124  11.435  24.842  1.00  0.00    -0.267 OA
ATOM     24  H   UNL     1      21.258  10.824  23.703  1.00  0.00     0.170 HD
BRANCH  22  25
ATOM     25  C   UNL     1      22.105  11.233  26.014  1.00  0.00     0.128 A 
ATOM     26  N   UNL     1      22.611  11.893  27.061  1.00  0.00    -0.248 NA
ATOM     27  C   UNL     1      20.892  10.568  26.038  1.00  0.00     0.037 A 
ATOM     28  C   UNL     1      21.896  11.889  28.198  1.00  0.00     0.151 A 
ATOM     29  C   UNL     1      20.176  10.587  27.221  1.00  0.00     0.043 A 
ATOM     30  C   UNL     1      20.683  11.251  28.322  1.00  0.00     0.141 A 
ATOM     31  F   UNL     1      20.019  11.305  29.489  1.00  0.00    -0.205 F 
ENDBRANCH  22  25
ENDBRANCH   3  21
TORSDOF 3
ENDMDL
MODEL 2
REMARK VINA RESULT:    -7.989      1.859      2.338
REMARK INTER + INTRA:          -9.574
REMARK INTER:                  -9.255
REMARK INTRA:                  -0.319
REMARK UNBOUND:                -0.184
REMARK SMILES CN1C(N)=N[C@](C)(c2cc(NC(=O)c3ccc(F)cn3)ccc2F)CS1(=O)=O
REMARK SMILES IDX 8 1 9 2 10 3 21 4 22 5 23 6 24 7 6 8 25 9 5 10 26 11 3 12
REMARK SMILES IDX 27 13 2 14 28 15 4 16 7 17 1 18 11 21 12 22 13 23 14 25
REMARK SMILES IDX 20 26 15 27 19 28 16 29 17 30 18 31
REMARK H PARENT 4 19 4 20 11 24
ROOT
ATOM      1  C   UNL     1      25.361  13.365  20.577  1.00  0.00     0.018 A 
ATOM      2  C   UNL     1      24.756  12.801  21.699  1.00  0.00     0.035 A 
ATOM      3  C   UNL     1      23.432  12.424  21.710  1.00  0.00     0.042 A 
ATOM      4  C   UNL     1      22.636  12.617  20.588  1.00  0.00     0.029 A 
ATOM      5  C   UNL     1      23.221  13.172  19.464  1.00  0.00     0.042 A 
ATOM      6  C   UNL     1      24.558  13.516  19.457  1.00  0.00     0.129 A 
ATOM      7  F   UNL     1      25.115  14.032  18.331  1.00  0.00    -0.207 F 
ENDROOT
BRANCH   1   8
ATOM      8  C   UNL     1      26.827  13.769  20.594  1.00  0.00     0.105 C 
ATOM      9  C   UNL     1      27.616  13.371  19.367  1.00  0.00     0.195 C 
ATOM     10  N   UNL     1      27.509  13.306  21.802  1.00  0.00    -0.240 NA
ATOM     11  S   UNL     1      27.690  11.604  19.215  1.00  0.00     0.239 S 
ATOM     12  C   UNL     1      27.953  12.092  21.911  1.00  0.00     0.205 C 
ATOM     13  O   UNL     1      28.918  11.301  18.501  1.00  0.00    -0.206 OA
ATOM     14  N   UNL     1      27.931  11.150  20.858  1.00  0.00    -0.243 N 
ATOM     15  O   UNL     1      26.414  11.048  18.891  1.00  0.00    -0.206 OA
ATOM     16  N   UNL     1      28.514  11.620  23.067  1.00  0.00    -0.369 N 
ATOM     17  C   UNL     1      26.918  15.293  20.712  1.00  0.00     0.044 C 
ATOM     18  C   UNL     1      28.325   9.738  21.034  1.00  0.00     0.167 C 
ATOM     19  H   UNL     1      28.575  12.203  23.858  1.00  0.00     0.159 HD
ATOM     20  H   UNL     1      28.857  10.698  23.108  1.00  0.00     0.159 HD
ENDBRANCH   1   8
BRANCH   3  21
ATOM     21  N   UNL     1      22.947  11.872  22.903  1.00  0.00    -0.321 N 
ATOM     22  C   UNL     1      22.442  12.532  24.010  1.00  0.00     0.274 C 
ATOM     23  O   UNL     1      22.459  13.745  24.175  1.00  0.00    -0.267 OA
ATOM     24  H   UNL     1      22.968  10.889  22.961  1.00  0.00     0.170 HD
BRANCH  22  25
ATOM     25  C   UNL     1      21.811  11.662  25.032  1.00  0.00     0.128 A 
ATOM     26  N   UNL     1      21.144  12.285  26.010  1.00  0.00    -0.248 NA
ATOM     27  C   UNL     1      21.924  10.286  24.934  1.00  0.00     0.037 A 
ATOM     28  C   UNL     1      20.568  11.518  26.950  1.00  0.00     0.151 A 
ATOM     29  C   UNL     1      21.314   9.523  25.914  1.00  0.00     0.043 A 
ATOM     30  C   UNL     1      20.629  10.143  26.941  1.00  0.00     0.141 A 
ATOM     31  F   UNL     1      20.013   9.443  27.910  1.00  0.00    -0.205 F 
ENDBRANCH  22  25
ENDBRANCH   3  21
TORSDOF 3
ENDMDL
MODEL 3
REMARK VINA RESULT:    -7.973      7.389     10.695
REMARK INTER + INTRA:          -9.555
REMARK INTER:                  -9.281
REMARK INTRA:                  -0.274
REMARK UNBOUND:                -0.184
REMARK SMILES CN1C(N)=N[C@](C)(c2cc(NC(=O)c3ccc(F)cn3)ccc2F)CS1(=O)=O
REMARK SMILES IDX 8 1 9 2 10 3 21 4 22 5 23 6 24 7 6 8 25 9 5 10 26 11 3 12
REMARK SMILES IDX 27 13 2 14 28 15 4 16 7 17 1 18 11 21 12 22 13 23 14 25
REMARK SMILES IDX 20 26 15 27 19 28 16 29 17 30 18 31
REMARK H PARENT 4 19 4 20 11 24
ROOT
ATOM      1  C   UNL     1      22.580   8.815  16.687  1.00  0.00     0.018 A 
ATOM      2  C   UNL     1      23.804   8.302  16.260  1.00  0.00     0.035 A 
ATOM      3  C   UNL     1      24.971   9.028  16.331  1.00  0.00     0.042 A 
ATOM      4  C   UNL     1      24.962  10.328  16.819  1.00  0.00     0.029 A 
ATOM      5  C   UNL     1      23.757  10.853  17.251  1.00  0.00     0.042 A 
ATOM      6  C   UNL     1      22.599  10.101  17.204  1.00  0.00     0.129 A 
ATOM      7  F   UNL     1      21.434  10.629  17.661  1.00  0.00    -0.207 F 
ENDROOT
BRANCH   1   8
ATOM      8  C   UNL     1      21.308   7.986  16.599  1.00  0.00     0.105 C 
ATOM      9  C   UNL     1      20.486   7.937  17.868  1.00  0.00     0.195 C 
ATOM     10  N   UNL     1      21.568   6.631  16.117  1.00  0.00    -0.240 NA
ATOM     11  S   UNL     1      21.391   7.142  19.171  1.00  0.00     0.239 S 
ATOM     12  C   UNL     1      21.994   5.696  16.909  1.00  0.00     0.205 C 
ATOM     13  O   UNL     1      20.406   6.552  20.059  1.00  0.00    -0.206 OA
ATOM     14  N   UNL     1      22.134   5.852  18.306  1.00  0.00    -0.243 N 
ATOM     15  O   UNL     1      22.493   7.939  19.610  1.00  0.00    -0.206 OA
ATOM     16  N   UNL     1      22.326   4.448  16.454  1.00  0.00    -0.369 N 
ATOM     17  C   UNL     1      20.411   8.573  15.506  1.00  0.00     0.044 C 
ATOM     18  C   UNL     1      22.737   4.822  19.174  1.00  0.00     0.167 C 
ATOM     19  H   UNL     1      22.261   4.241  15.493  1.00  0.00     0.159 HD
ATOM     20  H   UNL     1      22.629   3.757  17.087  1.00  0.00     0.159 HD
ENDBRANCH   1   8
BRANCH   3  21
ATOM     21  N   UNL     1      26.132   8.396  15.866  1.00  0.00    -0.321 N 
ATOM     22  C   UNL     1      27.327   8.200  16.535  1.00  0.00     0.274 C 
ATOM     23  O   UNL     1      27.609   8.674  17.628  1.00  0.00    -0.267 OA
ATOM     24  H   UNL     1      26.092   8.048  14.946  1.00  0.00     0.170 HD
BRANCH  22  25
ATOM     25  C   UNL     1      28.297   7.310  15.851  1.00  0.00     0.128 A 
ATOM     26  N   UNL     1      29.516   7.816  15.634  1.00  0.00    -0.248 NA
ATOM     27  C   UNL     1      27.920   6.030  15.484  1.00  0.00     0.037 A 
ATOM     28  C   UNL     1      30.410   7.030  15.012  1.00  0.00     0.151 A 
ATOM     29  C   UNL     1      28.865   5.242  14.850  1.00  0.00     0.043 A 
ATOM     30  C   UNL     1      30.128   5.746  14.604  1.00  0.00     0.141 A 
ATOM     31  F   UNL     1      31.081   5.016  14.000  1.00  0.00    -0.205 F 
ENDBRANCH  22  25
ENDBRANCH   3  21
TORSDOF 3
ENDMDL
MODEL 4
REMARK VINA RESULT:    -7.852      2.524      3.844
REMARK INTER + INTRA:          -9.412
REMARK INTER:                  -8.978
REMARK INTRA:                  -0.435
REMARK UNBOUND:                -0.184
REMARK SMILES CN1C(N)=N[C@](C)(c2cc(NC(=O)c3ccc(F)cn3)ccc2F)CS1(=O)=O
REMARK SMILES IDX 8 1 9 2 10 3 21 4 22 5 23 6 24 7 6 8 25 9 5 10 26 11 3 12
REMARK SMILES IDX 27 13 2 14 28 15 4 16 7 17 1 18 11 21 12 22 13 23 14 25
REMARK SMILES IDX 20 26 15 27 19 28 16 29 17 30 18 31
REMARK H PARENT 4 19 4 20 11 24
ROOT
ATOM      1  C   UNL     1      26.350  12.657  21.806  1.00  0.00     0.018 A 
ATOM      2  C   UNL     1      25.418  12.232  22.752  1.00  0.00     0.035 A 
ATOM      3  C   UNL     1      25.380  12.742  24.030  1.00  0.00     0.042 A 
ATOM      4  C   UNL     1      26.302  13.701  24.432  1.00  0.00     0.029 A 
ATOM      5  C   UNL     1      27.232  14.137  23.505  1.00  0.00     0.042 A 
ATOM      6  C   UNL     1      27.238  13.639  22.217  1.00  0.00     0.129 A 
ATOM      7  F   UNL     1      28.143  14.106  21.318  1.00  0.00    -0.207 F 
ENDROOT
BRANCH   1   8
ATOM      8  C   UNL     1      26.364  12.076  20.401  1.00  0.00     0.105 C 
ATOM      9  C   UNL     1      26.286  13.094  19.285  1.00  0.00     0.195 C 
ATOM     10  N   UNL     1      25.335  11.053  20.220  1.00  0.00    -0.240 NA
ATOM     11  S   UNL     1      24.742  13.967  19.341  1.00  0.00     0.239 S 
ATOM     12  C   UNL     1      24.103  11.364  19.963  1.00  0.00     0.205 C 
ATOM     13  O   UNL     1      24.453  14.385  17.981  1.00  0.00    -0.206 OA
ATOM     14  N   UNL     1      23.659  12.683  19.720  1.00  0.00    -0.243 N 
ATOM     15  O   UNL     1      24.663  14.828  20.480  1.00  0.00    -0.206 OA
ATOM     16  N   UNL     1      23.113  10.421  19.879  1.00  0.00    -0.369 N 
ATOM     17  C   UNL     1      27.665  11.293  20.203  1.00  0.00     0.044 C 
ATOM     18  C   UNL     1      22.236  13.036  19.552  1.00  0.00     0.167 C 
ATOM     19  H   UNL     1      23.324   9.472  20.033  1.00  0.00     0.159 HD
ATOM     20  H   UNL     1      22.191  10.692  19.664  1.00  0.00     0.159 HD
ENDBRANCH   1   8
BRANCH   3  21
ATOM     21  N   UNL     1      24.395  12.227  24.882  1.00  0.00    -0.321 N 
ATOM     22  C   UNL     1      23.077  12.628  25.011  1.00  0.00     0.274 C 
ATOM     23  O   UNL     1      22.584  13.610  24.472  1.00  0.00    -0.267 OA
ATOM     24  H   UNL     1      24.677  11.485  25.465  1.00  0.00     0.170 HD
BRANCH  22  25
ATOM     25  C   UNL     1      22.226  11.748  25.848  1.00  0.00     0.128 A 
ATOM     26  N   UNL     1      22.156  12.053  27.147  1.00  0.00    -0.248 NA
ATOM     27  C   UNL     1      21.552  10.686  25.270  1.00  0.00     0.037 A 
ATOM     28  C   UNL     1      21.394  11.267  27.926  1.00  0.00     0.151 A 
ATOM     29  C   UNL     1      20.771   9.898  26.097  1.00  0.00     0.043 A 
ATOM     30  C   UNL     1      20.691  10.186  27.446  1.00  0.00     0.141 A 
ATOM     31  F   UNL     1      19.938   9.455  28.286  1.00  0.00    -0.205 F 
ENDBRANCH  22  25
ENDBRANCH   3  21
TORSDOF 3
ENDMDL
MODEL 5
REMARK VINA RESULT:    -7.624      4.770      7.218
REMARK INTER + INTRA:          -9.144
REMARK INTER:                  -8.918
REMARK INTRA:                  -0.227
REMARK UNBOUND:                -0.184
REMARK SMILES CN1C(N)=N[C@](C)(c2cc(NC(=O)c3ccc(F)cn3)ccc2F)CS1(=O)=O
REMARK SMILES IDX 8 1 9 2 10 3 21 4 22 5 23 6 24 7 6 8 25 9 5 10 26 11 3 12
REMARK SMILES IDX 27 13 2 14 28 15 4 16 7 17 1 18 11 21 12 22 13 23 14 25
REMARK SMILES IDX 20 26 15 27 19 28 16 29 17 30 18 31
REMARK H PARENT 4 19 4 20 11 24
ROOT
ATOM      1  C   UNL     1      23.645  12.111  20.156  1.00  0.00     0.018 A 
ATOM      2  C   UNL     1      23.217  10.823  19.836  1.00  0.00     0.035 A 
ATOM      3  C   UNL     1      22.612   9.999  20.756  1.00  0.00     0.042 A 
ATOM      4  C   UNL     1      22.424  10.424  22.065  1.00  0.00     0.029 A 
ATOM      5  C   UNL     1      22.839  11.701  22.400  1.00  0.00     0.042 A 
ATOM      6  C   UNL     1      23.416  12.529  21.458  1.00  0.00     0.129 A 
ATOM      7  F   UNL     1      23.788  13.788  21.805  1.00  0.00    -0.207 F 
ENDROOT
BRANCH   1   8
ATOM      8  C   UNL     1      24.308  13.000  19.116  1.00  0.00     0.105 C 
ATOM      9  C   UNL     1      23.670  14.359  18.933  1.00  0.00     0.195 C 
ATOM     10  N   UNL     1      24.439  12.328  17.823  1.00  0.00    -0.240 NA
ATOM     11  S   UNL     1      22.012  14.196  18.320  1.00  0.00     0.239 S 
ATOM     12  C   UNL     1      23.451  12.267  16.985  1.00  0.00     0.205 C 
ATOM     13  O   UNL     1      21.726  15.407  17.573  1.00  0.00    -0.206 OA
ATOM     14  N   UNL     1      22.216  12.926  17.175  1.00  0.00    -0.243 N 
ATOM     15  O   UNL     1      21.140  13.633  19.303  1.00  0.00    -0.206 OA
ATOM     16  N   UNL     1      23.531  11.566  15.811  1.00  0.00    -0.369 N 
ATOM     17  C   UNL     1      25.764  13.239  19.526  1.00  0.00     0.044 C 
ATOM     18  C   UNL     1      21.060  12.746  16.275  1.00  0.00     0.167 C 
ATOM     19  H   UNL     1      24.353  11.073  15.588  1.00  0.00     0.159 HD
ATOM     20  H   UNL     1      22.767  11.557  15.190  1.00  0.00     0.159 HD
ENDBRANCH   1   8
BRANCH   3  21
ATOM     21  N   UNL     1      22.232   8.727  20.306  1.00  0.00    -0.321 N 
ATOM     22  C   UNL     1      21.493   8.401  19.183  1.00  0.00     0.274 C 
ATOM     23  O   UNL     1      20.930   9.206  18.452  1.00  0.00    -0.267 OA
ATOM     24  H   UNL     1      22.530   7.969  20.860  1.00  0.00     0.170 HD
BRANCH  22  25
ATOM     25  C   UNL     1      21.437   6.955  18.860  1.00  0.00     0.128 A 
ATOM     26  N   UNL     1      20.234   6.376  18.941  1.00  0.00    -0.248 NA
ATOM     27  C   UNL     1      22.589   6.284  18.489  1.00  0.00     0.037 A 
ATOM     28  C   UNL     1      20.159   5.065  18.657  1.00  0.00     0.151 A 
ATOM     29  C   UNL     1      22.478   4.936  18.196  1.00  0.00     0.043 A 
ATOM     30  C   UNL     1      21.249   4.312  18.285  1.00  0.00     0.141 A 
ATOM     31  F   UNL     1      21.092   3.008  18.002  1.00  0.00    -0.205 F 
ENDBRANCH  22  25
ENDBRANCH   3  21
TORSDOF 3
ENDMDL
MODEL 6
REMARK VINA RESULT:    -7.457      4.222      6.549
REMARK INTER + INTRA:          -8.949
REMARK INTER:                  -8.672
REMARK INTRA:                  -0.277
REMARK UNBOUND:                -0.184
REMARK SMILES CN1C(N)=N[C@](C)(c2cc(NC(=O)c3ccc(F)cn3)ccc2F)CS1(=O)=O
REMARK SMILES IDX 8 1 9 2 10 3 21 4 22 5 23 6 24 7 6 8 25 9 5 10 26 11 3 12
REMARK SMILES IDX 27 13 2 14 28 15 4 16 7 17 1 18 11 21 12 22 13 23 14 25
REMARK SMILES IDX 20 26 15 27 19 28 16 29 17 30 18 31
REMARK H PARENT 4 19 4 20 11 24
ROOT
ATOM      1  C   UNL     1      24.983  11.671  21.224  1.00  0.00     0.018 A 
ATOM      2  C   UNL     1      24.533  10.412  20.829  1.00  0.00     0.035 A 
ATOM      3  C   UNL     1      23.212  10.038  20.929  1.00  0.00     0.042 A 
ATOM      4  C   UNL     1      22.271  10.912  21.458  1.00  0.00     0.029 A 
ATOM      5  C   UNL     1      22.699  12.167  21.852  1.00  0.00     0.042 A 
ATOM      6  C   UNL     1      24.022  12.541  21.716  1.00  0.00     0.129 A 
ATOM      7  F   UNL     1      24.411  13.789  22.084  1.00  0.00    -0.207 F 
ENDROOT
BRANCH   1   8
ATOM      8  C   UNL     1      26.449  12.056  21.099  1.00  0.00     0.105 C 
ATOM      9  C   UNL     1      26.719  13.283  20.256  1.00  0.00     0.195 C 
ATOM     10  N   UNL     1      27.272  10.939  20.639  1.00  0.00    -0.240 NA
ATOM     11  S   UNL     1      26.233  13.005  18.571  1.00  0.00     0.239 S 
ATOM     12  C   UNL     1      27.357  10.628  19.382  1.00  0.00     0.205 C 
ATOM     13  O   UNL     1      27.074  13.859  17.752  1.00  0.00    -0.206 OA
ATOM     14  N   UNL     1      26.775  11.387  18.343  1.00  0.00    -0.243 N 
ATOM     15  O   UNL     1      24.813  12.912  18.440  1.00  0.00    -0.206 OA
ATOM     16  N   UNL     1      28.053   9.532  18.947  1.00  0.00    -0.369 N 
ATOM     17  C   UNL     1      27.007  12.341  22.496  1.00  0.00     0.044 C 
ATOM     18  C   UNL     1      26.775  10.953  16.932  1.00  0.00     0.167 C 
ATOM     19  H   UNL     1      28.496   8.940  19.597  1.00  0.00     0.159 HD
ATOM     20  H   UNL     1      28.111   9.336  17.984  1.00  0.00     0.159 HD
ENDBRANCH   1   8
BRANCH   3  21
ATOM     21  N   UNL     1      22.893   8.743  20.499  1.00  0.00    -0.321 N 
ATOM     22  C   UNL     1      21.997   8.364  19.515  1.00  0.00     0.274 C 
ATOM     23  O   UNL     1      21.226   9.117  18.936  1.00  0.00    -0.267 OA
ATOM     24  H   UNL     1      23.367   8.010  20.955  1.00  0.00     0.170 HD
BRANCH  22  25
ATOM     25  C   UNL     1      22.036   6.928  19.143  1.00  0.00     0.128 A 
ATOM     26  N   UNL     1      21.324   6.098  19.912  1.00  0.00    -0.248 NA
ATOM     27  C   UNL     1      22.774   6.518  18.047  1.00  0.00     0.037 A 
ATOM     28  C   UNL     1      21.346   4.792  19.597  1.00  0.00     0.151 A 
ATOM     29  C   UNL     1      22.773   5.168  17.744  1.00  0.00     0.043 A 
ATOM     30  C   UNL     1      22.054   4.287  18.530  1.00  0.00     0.141 A 
ATOM     31  F   UNL     1      22.016   2.969  18.270  1.00  0.00    -0.205 F 
ENDBRANCH  22  25
ENDBRANCH   3  21
TORSDOF 3
ENDMDL
MODEL 7
REMARK VINA RESULT:    -7.219      4.594      6.161
REMARK INTER + INTRA:          -8.669
REMARK INTER:                  -8.405
REMARK INTRA:                  -0.264
REMARK UNBOUND:                -0.184
REMARK SMILES CN1C(N)=N[C@](C)(c2cc(NC(=O)c3ccc(F)cn3)ccc2F)CS1(=O)=O
REMARK SMILES IDX 8 1 9 2 10 3 21 4 22 5 23 6 24 7 6 8 25 9 5 10 26 11 3 12
REMARK SMILES IDX 27 13 2 14 28 15 4 16 7 17 1 18 11 21 12 22 13 23 14 25
REMARK SMILES IDX 20 26 15 27 19 28 16 29 17 30 18 31
REMARK H PARENT 4 19 4 20 11 24
ROOT
ATOM      1  C   UNL     1      21.605   8.167  17.196  1.00  0.00     0.018 A 
ATOM      2  C   UNL     1      21.832   8.801  18.417  1.00  0.00     0.035 A 
ATOM      3  C   UNL     1      22.109   8.101  19.569  1.00  0.00     0.042 A 
ATOM      4  C   UNL     1      22.152   6.712  19.555  1.00  0.00     0.029 A 
ATOM      5  C   UNL     1      21.933   6.067  18.351  1.00  0.00     0.042 A 
ATOM      6  C   UNL     1      21.687   6.783  17.197  1.00  0.00     0.129 A 
ATOM      7  F   UNL     1      21.505   6.127  16.022  1.00  0.00    -0.207 F 
ENDROOT
BRANCH   1   8
ATOM      8  C   UNL     1      21.304   8.969  15.939  1.00  0.00     0.105 C 
ATOM      9  C   UNL     1      22.258   8.739  14.788  1.00  0.00     0.195 C 
ATOM     10  N   UNL     1      21.186  10.400  16.216  1.00  0.00    -0.240 NA
ATOM     11  S   UNL     1      23.897   9.269  15.216  1.00  0.00     0.239 S 
ATOM     12  C   UNL     1      22.231  11.161  16.322  1.00  0.00     0.205 C 
ATOM     13  O   UNL     1      24.549   9.644  13.974  1.00  0.00    -0.206 OA
ATOM     14  N   UNL     1      23.551  10.724  16.069  1.00  0.00    -0.243 N 
ATOM     15  O   UNL     1      24.482   8.423  16.208  1.00  0.00    -0.206 OA
ATOM     16  N   UNL     1      22.140  12.483  16.667  1.00  0.00    -0.369 N 
ATOM     17  C   UNL     1      19.903   8.600  15.441  1.00  0.00     0.044 C 
ATOM     18  C   UNL     1      24.738  11.567  16.314  1.00  0.00     0.167 C 
ATOM     19  H   UNL     1      21.261  12.881  16.863  1.00  0.00     0.159 HD
ATOM     20  H   UNL     1      22.953  13.035  16.720  1.00  0.00     0.159 HD
ENDBRANCH   1   8
BRANCH   3  21
ATOM     21  N   UNL     1      22.314   8.858  20.729  1.00  0.00    -0.321 N 
ATOM     22  C   UNL     1      23.261   9.842  20.955  1.00  0.00     0.274 C 
ATOM     23  O   UNL     1      24.178  10.124  20.195  1.00  0.00    -0.267 OA
ATOM     24  H   UNL     1      21.706   8.666  21.480  1.00  0.00     0.170 HD
BRANCH  22  25
ATOM     25  C   UNL     1      23.089  10.610  22.212  1.00  0.00     0.128 A 
ATOM     26  N   UNL     1      23.306   9.941  23.350  1.00  0.00    -0.248 NA
ATOM     27  C   UNL     1      22.732  11.946  22.162  1.00  0.00     0.037 A 
ATOM     28  C   UNL     1      23.152  10.615  24.501  1.00  0.00     0.151 A 
ATOM     29  C   UNL     1      22.587  12.615  23.365  1.00  0.00     0.043 A 
ATOM     30  C   UNL     1      22.795  11.943  24.555  1.00  0.00     0.141 A 
ATOM     31  F   UNL     1      22.675  12.553  25.746  1.00  0.00    -0.205 F 
ENDBRANCH  22  25
ENDBRANCH   3  21
TORSDOF 3
ENDMDL
MODEL 8
REMARK VINA RESULT:    -7.209      6.497      8.118
REMARK INTER + INTRA:          -8.657
REMARK INTER:                  -8.460
REMARK INTRA:                  -0.197
REMARK UNBOUND:                -0.184
REMARK SMILES CN1C(N)=N[C@](C)(c2cc(NC(=O)c3ccc(F)cn3)ccc2F)CS1(=O)=O
REMARK SMILES IDX 8 1 9 2 10 3 21 4 22 5 23 6 24 7 6 8 25 9 5 10 26 11 3 12
REMARK SMILES IDX 27 13 2 14 28 15 4 16 7 17 1 18 11 21 12 22 13 23 14 25
REMARK SMILES IDX 20 26 15 27 19 28 16 29 17 30 18 31
REMARK H PARENT 4 19 4 20 11 24
ROOT
ATOM      1  C   UNL     1      24.017   6.893  15.002  1.00  0.00     0.018 A 
ATOM      2  C   UNL     1      23.837   7.862  15.989  1.00  0.00     0.035 A 
ATOM      3  C   UNL     1      23.293   7.568  17.218  1.00  0.00     0.042 A 
ATOM      4  C   UNL     1      22.878   6.275  17.513  1.00  0.00     0.029 A 
ATOM      5  C   UNL     1      23.052   5.300  16.547  1.00  0.00     0.042 A 
ATOM      6  C   UNL     1      23.629   5.603  15.329  1.00  0.00     0.129 A 
ATOM      7  F   UNL     1      23.816   4.622  14.409  1.00  0.00    -0.207 F 
ENDROOT
BRANCH   1   8
ATOM      8  C   UNL     1      24.625   7.249  13.654  1.00  0.00     0.105 C 
ATOM      9  C   UNL     1      25.681   6.289  13.153  1.00  0.00     0.195 C 
ATOM     10  N   UNL     1      25.138   8.618  13.627  1.00  0.00    -0.240 NA
ATOM     11  S   UNL     1      27.087   6.283  14.236  1.00  0.00     0.239 S 
ATOM     12  C   UNL     1      26.303   8.918  14.111  1.00  0.00     0.205 C 
ATOM     13  O   UNL     1      28.234   5.922  13.423  1.00  0.00    -0.206 OA
ATOM     14  N   UNL     1      27.224   7.962  14.593  1.00  0.00    -0.243 N 
ATOM     15  O   UNL     1      26.778   5.689  15.499  1.00  0.00    -0.206 OA
ATOM     16  N   UNL     1      26.758  10.208  14.173  1.00  0.00    -0.369 N 
ATOM     17  C   UNL     1      23.511   7.279  12.603  1.00  0.00     0.044 C 
ATOM     18  C   UNL     1      28.493   8.328  15.254  1.00  0.00     0.167 C 
ATOM     19  H   UNL     1      26.188  10.947  13.859  1.00  0.00     0.159 HD
ATOM     20  H   UNL     1      27.656  10.397  14.530  1.00  0.00     0.159 HD
ENDBRANCH   1   8
BRANCH   3  21
ATOM     21  N   UNL     1      23.164   8.633  18.119  1.00  0.00    -0.321 N 
ATOM     22  C   UNL     1      22.013   9.121  18.711  1.00  0.00     0.274 C 
ATOM     23  O   UNL     1      20.874   8.766  18.435  1.00  0.00    -0.267 OA
ATOM     24  H   UNL     1      24.000   9.094  18.361  1.00  0.00     0.170 HD
BRANCH  22  25
ATOM     25  C   UNL     1      22.228  10.123  19.783  1.00  0.00     0.128 A 
ATOM     26  N   UNL     1      22.263  11.403  19.399  1.00  0.00    -0.248 NA
ATOM     27  C   UNL     1      22.368   9.710  21.097  1.00  0.00     0.037 A 
ATOM     28  C   UNL     1      22.460  12.329  20.352  1.00  0.00     0.151 A 
ATOM     29  C   UNL     1      22.564  10.688  22.056  1.00  0.00     0.043 A 
ATOM     30  C   UNL     1      22.617  12.017  21.683  1.00  0.00     0.141 A 
ATOM     31  F   UNL     1      22.796  13.002  22.580  1.00  0.00    -0.205 F 
ENDBRANCH  22  25
ENDBRANCH   3  21
TORSDOF 3
ENDMDL
MODEL 9
REMARK VINA RESULT:    -7.143      2.386      3.335
REMARK INTER + INTRA:          -8.580
REMARK INTER:                  -8.934
REMARK INTRA:                   0.355
REMARK UNBOUND:                -0.184
REMARK SMILES CN1C(N)=N[C@](C)(c2cc(NC(=O)c3ccc(F)cn3)ccc2F)CS1(=O)=O
REMARK SMILES IDX 8 1 9 2 10 3 21 4 22 5 23 6 24 7 6 8 25 9 5 10 26 11 3 12
REMARK SMILES IDX 27 13 2 14 28 15 4 16 7 17 1 18 11 21 12 22 13 23 14 25
REMARK SMILES IDX 20 26 15 27 19 28 16 29 17 30 18 31
REMARK H PARENT 4 19 4 20 11 24
ROOT
ATOM      1  C   UNL     1      25.524  14.224  22.525  1.00  0.00     0.018 A 
ATOM      2  C   UNL     1      24.491  13.747  23.331  1.00  0.00     0.035 A 
ATOM      3  C   UNL     1      24.625  13.606  24.694  1.00  0.00     0.042 A 
ATOM      4  C   UNL     1      25.826  13.921  25.319  1.00  0.00     0.029 A 
ATOM      5  C   UNL     1      26.861  14.399  24.535  1.00  0.00     0.042 A 
ATOM      6  C   UNL     1      26.701  14.565  23.173  1.00  0.00     0.129 A 
ATOM      7  F   UNL     1      27.723  15.065  22.431  1.00  0.00    -0.207 F 
ENDROOT
BRANCH   1   8
ATOM      8  C   UNL     1      25.344  14.371  21.023  1.00  0.00     0.105 C 
ATOM      9  C   UNL     1      24.309  13.455  20.409  1.00  0.00     0.195 C 
ATOM     10  N   UNL     1      26.611  14.250  20.304  1.00  0.00    -0.240 NA
ATOM     11  S   UNL     1      24.789  11.756  20.589  1.00  0.00     0.239 S 
ATOM     12  C   UNL     1      27.126  13.093  20.021  1.00  0.00     0.205 C 
ATOM     13  O   UNL     1      24.184  11.035  19.484  1.00  0.00    -0.206 OA
ATOM     14  N   UNL     1      26.477  11.863  20.265  1.00  0.00    -0.243 N 
ATOM     15  O   UNL     1      24.729  11.333  21.953  1.00  0.00    -0.206 OA
ATOM     16  N   UNL     1      28.353  12.965  19.427  1.00  0.00    -0.369 N 
ATOM     17  C   UNL     1      24.911  15.807  20.715  1.00  0.00     0.044 C 
ATOM     18  C   UNL     1      27.126  10.554  20.052  1.00  0.00     0.167 C 
ATOM     19  H   UNL     1      28.884  13.768  19.216  1.00  0.00     0.159 HD
ATOM     20  H   UNL     1      28.705  12.072  19.210  1.00  0.00     0.159 HD
ENDBRANCH   1   8
BRANCH   3  21
ATOM     21  N   UNL     1      23.512  13.113  25.386  1.00  0.00    -0.321 N 
ATOM     22  C   UNL     1      23.099  11.799  25.521  1.00  0.00     0.274 C 
ATOM     23  O   UNL     1      23.587  10.844  24.932  1.00  0.00    -0.267 OA
ATOM     24  H   UNL     1      22.952  13.787  25.835  1.00  0.00     0.170 HD
BRANCH  22  25
ATOM     25  C   UNL     1      22.001  11.577  26.493  1.00  0.00     0.128 A 
ATOM     26  N   UNL     1      22.279  11.843  27.773  1.00  0.00    -0.248 NA
ATOM     27  C   UNL     1      20.768  11.129  26.051  1.00  0.00     0.037 A 
ATOM     28  C   UNL     1      21.301  11.645  28.672  1.00  0.00     0.151 A 
ATOM     29  C   UNL     1      19.778  10.941  27.000  1.00  0.00     0.043 A 
ATOM     30  C   UNL     1      20.045  11.197  28.331  1.00  0.00     0.141 A 
ATOM     31  F   UNL     1      19.113  11.037  29.287  1.00  0.00    -0.205 F 
ENDBRANCH  22  25
ENDBRANCH   3  21
TORSDOF 3
ENDMDL
MODEL 10
REMARK VINA RESULT:    -7.115      4.931      6.763
REMARK INTER + INTRA:          -8.546
REMARK INTER:                  -8.907
REMARK INTRA:                   0.360
REMARK UNBOUND:                -0.184
REMARK SMILES CN1C(N)=N[C@](C)(c2cc(NC(=O)c3ccc(F)cn3)ccc2F)CS1(=O)=O
REMARK SMILES IDX 8 1 9 2 10 3 21 4 22 5 23 6 24 7 6 8 25 9 5 10 26 11 3 12
REMARK SMILES IDX 27 13 2 14 28 15 4 16 7 17 1 18 11 21 12 22 13 23 14 25
REMARK SMILES IDX 20 26 15 27 19 28 16 29 17 30 18 31
REMARK H PARENT 4 19 4 20 11 24
ROOT
ATOM      1  C   UNL     1      22.709   9.145  17.492  1.00  0.00     0.018 A 
ATOM      2  C   UNL     1      22.647   9.545  18.826  1.00  0.00     0.035 A 
ATOM      3  C   UNL     1      23.726  10.096  19.480  1.00  0.00     0.042 A 
ATOM      4  C   UNL     1      24.940  10.255  18.824  1.00  0.00     0.029 A 
ATOM      5  C   UNL     1      25.019   9.866  17.499  1.00  0.00     0.042 A 
ATOM      6  C   UNL     1      23.920   9.344  16.846  1.00  0.00     0.129 A 
ATOM      7  F   UNL     1      24.015   8.998  15.537  1.00  0.00    -0.207 F 
ENDROOT
BRANCH   1   8
ATOM      8  C   UNL     1      21.499   8.541  16.796  1.00  0.00     0.105 C 
ATOM      9  C   UNL     1      20.492   7.885  17.715  1.00  0.00     0.195 C 
ATOM     10  N   UNL     1      21.883   7.616  15.731  1.00  0.00    -0.240 NA
ATOM     11  S   UNL     1      21.214   6.491  18.543  1.00  0.00     0.239 S 
ATOM     12  C   UNL     1      22.217   6.388  15.982  1.00  0.00     0.205 C 
ATOM     13  O   UNL     1      20.127   5.575  18.837  1.00  0.00    -0.206 OA
ATOM     14  N   UNL     1      22.132   5.797  17.262  1.00  0.00    -0.243 N 
ATOM     15  O   UNL     1      22.203   6.895  19.492  1.00  0.00    -0.206 OA
ATOM     16  N   UNL     1      22.663   5.538  15.006  1.00  0.00    -0.369 N 
ATOM     17  C   UNL     1      20.761   9.649  16.039  1.00  0.00     0.044 C 
ATOM     18  C   UNL     1      22.632   4.439  17.556  1.00  0.00     0.167 C 
ATOM     19  H   UNL     1      22.756   5.858  14.080  1.00  0.00     0.159 HD
ATOM     20  H   UNL     1      22.891   4.607  15.230  1.00  0.00     0.159 HD
ENDBRANCH   1   8
BRANCH   3  21
ATOM     21  N   UNL     1      23.531  10.453  20.821  1.00  0.00    -0.321 N 
ATOM     22  C   UNL     1      22.863  11.554  21.326  1.00  0.00     0.274 C 
ATOM     23  O   UNL     1      22.432  12.485  20.658  1.00  0.00    -0.267 OA
ATOM     24  H   UNL     1      23.919   9.842  21.488  1.00  0.00     0.170 HD
BRANCH  22  25
ATOM     25  C   UNL     1      22.645  11.544  22.793  1.00  0.00     0.128 A 
ATOM     26  N   UNL     1      22.474  10.344  23.359  1.00  0.00    -0.248 NA
ATOM     27  C   UNL     1      22.636  12.734  23.499  1.00  0.00     0.037 A 
ATOM     28  C   UNL     1      22.271  10.310  24.686  1.00  0.00     0.151 A 
ATOM     29  C   UNL     1      22.431  12.666  24.866  1.00  0.00     0.043 A 
ATOM     30  C   UNL     1      22.240  11.439  25.472  1.00  0.00     0.141 A 
ATOM     31  F   UNL     1      22.046  11.323  26.797  1.00  0.00    -0.205 F 
ENDBRANCH  22  25
ENDBRANCH   3  21
TORSDOF 3
ENDMDL
MODEL 11
REMARK VINA RESULT:    -6.970      3.869      5.451
REMARK INTER + INTRA:          -8.376
REMARK INTER:                  -8.058
REMARK INTRA:                  -0.318
REMARK UNBOUND:                -0.184
REMARK SMILES CN1C(N)=N[C@](C)(c2cc(NC(=O)c3ccc(F)cn3)ccc2F)CS1(=O)=O
REMARK SMILES IDX 8 1 9 2 10 3 21 4 22 5 23 6 24 7 6 8 25 9 5 10 26 11 3 12
REMARK SMILES IDX 27 13 2 14 28 15 4 16 7 17 1 18 11 21 12 22 13 23 14 25
REMARK SMILES IDX 20 26 15 27 19 28 16 29 17 30 18 31
REMARK H PARENT 4 19 4 20 11 24
ROOT
ATOM      1  C   UNL     1      23.491  10.853  18.480  1.00  0.00     0.018 A 
ATOM      2  C   UNL     1      23.076  10.570  19.781  1.00  0.00     0.035 A 
ATOM      3  C   UNL     1      22.671  11.553  20.654  1.00  0.00     0.042 A 
ATOM      4  C   UNL     1      22.685  12.887  20.267  1.00  0.00     0.029 A 
ATOM      5  C   UNL     1      23.090  13.187  18.979  1.00  0.00     0.042 A 
ATOM      6  C   UNL     1      23.463  12.187  18.102  1.00  0.00     0.129 A 
ATOM      7  F   UNL     1      23.829  12.504  16.834  1.00  0.00    -0.207 F 
ENDROOT
BRANCH   1   8
ATOM      8  C   UNL     1      23.930   9.743  17.537  1.00  0.00     0.105 C 
ATOM      9  C   UNL     1      23.339   9.814  16.146  1.00  0.00     0.195 C 
ATOM     10  N   UNL     1      23.709   8.417  18.110  1.00  0.00    -0.240 NA
ATOM     11  S   UNL     1      21.576   9.615  16.203  1.00  0.00     0.239 S 
ATOM     12  C   UNL     1      22.546   7.843  18.072  1.00  0.00     0.205 C 
ATOM     13  O   UNL     1      21.182   9.043  14.928  1.00  0.00    -0.206 OA
ATOM     14  N   UNL     1      21.431   8.373  17.386  1.00  0.00    -0.243 N 
ATOM     15  O   UNL     1      20.938  10.742  16.810  1.00  0.00    -0.206 OA
ATOM     16  N   UNL     1      22.304   6.641  18.681  1.00  0.00    -0.369 N 
ATOM     17  C   UNL     1      25.452   9.800  17.381  1.00  0.00     0.044 C 
ATOM     18  C   UNL     1      20.084   7.772  17.455  1.00  0.00     0.167 C 
ATOM     19  H   UNL     1      23.021   6.191  19.185  1.00  0.00     0.159 HD
ATOM     20  H   UNL     1      21.413   6.226  18.616  1.00  0.00     0.159 HD
ENDBRANCH   1   8
BRANCH   3  21
ATOM     21  N   UNL     1      22.281  11.135  21.933  1.00  0.00    -0.321 N 
ATOM     22  C   UNL     1      22.970  11.267  23.126  1.00  0.00     0.274 C 
ATOM     23  O   UNL     1      24.121  11.670  23.233  1.00  0.00    -0.267 OA
ATOM     24  H   UNL     1      21.404  10.690  21.990  1.00  0.00     0.170 HD
BRANCH  22  25
ATOM     25  C   UNL     1      22.201  10.914  24.344  1.00  0.00     0.128 A 
ATOM     26  N   UNL     1      21.900   9.621  24.501  1.00  0.00    -0.248 NA
ATOM     27  C   UNL     1      21.846  11.901  25.247  1.00  0.00     0.037 A 
ATOM     28  C   UNL     1      21.200   9.277  25.594  1.00  0.00     0.151 A 
ATOM     29  C   UNL     1      21.131  11.515  26.367  1.00  0.00     0.043 A 
ATOM     30  C   UNL     1      20.797  10.186  26.546  1.00  0.00     0.141 A 
ATOM     31  F   UNL     1      20.111   9.763  27.622  1.00  0.00    -0.205 F 
ENDBRANCH  22  25
ENDBRANCH   3  21
TORSDOF 3
ENDMDL
MODEL 12
REMARK VINA RESULT:    -6.906      5.413      6.918
REMARK INTER + INTRA:          -8.300
REMARK INTER:                  -7.902
REMARK INTRA:                  -0.398
REMARK UNBOUND:                -0.184
REMARK SMILES CN1C(N)=N[C@](C)(c2cc(NC(=O)c3ccc(F)cn3)ccc2F)CS1(=O)=O
REMARK SMILES IDX 8 1 9 2 10 3 21 4 22 5 23 6 24 7 6 8 25 9 5 10 26 11 3 12
REMARK SMILES IDX 27 13 2 14 28 15 4 16 7 17 1 18 11 21 12 22 13 23 14 25
REMARK SMILES IDX 20 26 15 27 19 28 16 29 17 30 18 31
REMARK H PARENT 4 19 4 20 11 24
ROOT
ATOM      1  C   UNL     1      22.367  10.954  15.822  1.00  0.00     0.018 A 
ATOM      2  C   UNL     1      22.528  10.848  17.203  1.00  0.00     0.035 A 
ATOM      3  C   UNL     1      21.860  11.665  18.086  1.00  0.00     0.042 A 
ATOM      4  C   UNL     1      21.005  12.655  17.620  1.00  0.00     0.029 A 
ATOM      5  C   UNL     1      20.830  12.773  16.252  1.00  0.00     0.042 A 
ATOM      6  C   UNL     1      21.482  11.925  15.379  1.00  0.00     0.129 A 
ATOM      7  F   UNL     1      21.271  12.041  14.043  1.00  0.00    -0.207 F 
ENDROOT
BRANCH   1   8
ATOM      8  C   UNL     1      23.117  10.033  14.871  1.00  0.00     0.105 C 
ATOM      9  C   UNL     1      22.253   9.325  13.851  1.00  0.00     0.195 C 
ATOM     10  N   UNL     1      23.946   9.064  15.586  1.00  0.00    -0.240 NA
ATOM     11  S   UNL     1      21.110   8.228  14.650  1.00  0.00     0.239 S 
ATOM     12  C   UNL     1      23.448   7.973  16.079  1.00  0.00     0.205 C 
ATOM     13  O   UNL     1      20.824   7.166  13.703  1.00  0.00    -0.206 OA
ATOM     14  N   UNL     1      22.112   7.559  15.879  1.00  0.00    -0.243 N 
ATOM     15  O   UNL     1      20.110   8.946  15.377  1.00  0.00    -0.206 OA
ATOM     16  N   UNL     1      24.194   7.101  16.825  1.00  0.00    -0.369 N 
ATOM     17  C   UNL     1      24.146  10.858  14.093  1.00  0.00     0.044 C 
ATOM     18  C   UNL     1      21.527   6.380  16.548  1.00  0.00     0.167 C 
ATOM     19  H   UNL     1      25.138   7.302  17.019  1.00  0.00     0.159 HD
ATOM     20  H   UNL     1      23.787   6.272  17.168  1.00  0.00     0.159 HD
ENDBRANCH   1   8
BRANCH   3  21
ATOM     21  N   UNL     1      22.113  11.456  19.448  1.00  0.00    -0.321 N 
ATOM     22  C   UNL     1      22.800  12.274  20.328  1.00  0.00     0.274 C 
ATOM     23  O   UNL     1      23.423  13.280  20.013  1.00  0.00    -0.267 OA
ATOM     24  H   UNL     1      21.756  10.621  19.828  1.00  0.00     0.170 HD
BRANCH  22  25
ATOM     25  C   UNL     1      22.717  11.880  21.755  1.00  0.00     0.128 A 
ATOM     26  N   UNL     1      22.796  12.871  22.649  1.00  0.00    -0.248 NA
ATOM     27  C   UNL     1      22.557  10.549  22.096  1.00  0.00     0.037 A 
ATOM     28  C   UNL     1      22.728  12.539  23.949  1.00  0.00     0.151 A 
ATOM     29  C   UNL     1      22.484  10.238  23.443  1.00  0.00     0.043 A 
ATOM     30  C   UNL     1      22.575  11.243  24.386  1.00  0.00     0.141 A 
ATOM     31  F   UNL     1      22.499  10.990  25.704  1.00  0.00    -0.205 F 
ENDBRANCH  22  25
ENDBRANCH   3  21
TORSDOF 3
ENDMDL
MODEL 13
REMARK VINA RESULT:    -6.879      6.961     10.436
REMARK INTER + INTRA:          -8.268
REMARK INTER:                  -7.838
REMARK INTRA:                  -0.431
REMARK UNBOUND:                -0.184
REMARK SMILES CN1C(N)=N[C@](C)(c2cc(NC(=O)c3ccc(F)cn3)ccc2F)CS1(=O)=O
REMARK SMILES IDX 8 1 9 2 10 3 21 4 22 5 23 6 24 7 6 8 25 9 5 10 26 11 3 12
REMARK SMILES IDX 27 13 2 14 28 15 4 16 7 17 1 18 11 21 12 22 13 23 14 25
REMARK SMILES IDX 20 26 15 27 19 28 16 29 17 30 18 31
REMARK H PARENT 4 19 4 20 11 24
ROOT
ATOM      1  C   UNL     1      22.525   8.328  17.629  1.00  0.00     0.018 A 
ATOM      2  C   UNL     1      23.700   7.846  17.054  1.00  0.00     0.035 A 
ATOM      3  C   UNL     1      23.729   6.704  16.285  1.00  0.00     0.042 A 
ATOM      4  C   UNL     1      22.569   5.970  16.072  1.00  0.00     0.029 A 
ATOM      5  C   UNL     1      21.392   6.436  16.633  1.00  0.00     0.042 A 
ATOM      6  C   UNL     1      21.373   7.600  17.375  1.00  0.00     0.129 A 
ATOM      7  F   UNL     1      20.200   8.052  17.889  1.00  0.00    -0.207 F 
ENDROOT
BRANCH   1   8
ATOM      8  C   UNL     1      22.525   9.595  18.471  1.00  0.00     0.105 C 
ATOM      9  C   UNL     1      21.452  10.600  18.116  1.00  0.00     0.195 C 
ATOM     10  N   UNL     1      23.836  10.243  18.486  1.00  0.00    -0.240 NA
ATOM     11  S   UNL     1      21.690  11.216  16.469  1.00  0.00     0.239 S 
ATOM     12  C   UNL     1      24.226  11.015  17.519  1.00  0.00     0.205 C 
ATOM     13  O   UNL     1      21.118  12.550  16.439  1.00  0.00    -0.206 OA
ATOM     14  N   UNL     1      23.402  11.394  16.436  1.00  0.00    -0.243 N 
ATOM     15  O   UNL     1      21.432  10.209  15.487  1.00  0.00    -0.206 OA
ATOM     16  N   UNL     1      25.482  11.557  17.478  1.00  0.00    -0.369 N 
ATOM     17  C   UNL     1      22.315   9.212  19.939  1.00  0.00     0.044 C 
ATOM     18  C   UNL     1      23.897  12.170  15.281  1.00  0.00     0.167 C 
ATOM     19  H   UNL     1      26.130  11.351  18.189  1.00  0.00     0.159 HD
ATOM     20  H   UNL     1      25.737  12.153  16.737  1.00  0.00     0.159 HD
ENDBRANCH   1   8
BRANCH   3  21
ATOM     21  N   UNL     1      24.975   6.327  15.768  1.00  0.00    -0.321 N 
ATOM     22  C   UNL     1      25.491   6.576  14.509  1.00  0.00     0.274 C 
ATOM     23  O   UNL     1      24.869   7.071  13.578  1.00  0.00    -0.267 OA
ATOM     24  H   UNL     1      25.558   5.821  16.379  1.00  0.00     0.170 HD
BRANCH  22  25
ATOM     25  C   UNL     1      26.923   6.232  14.332  1.00  0.00     0.128 A 
ATOM     26  N   UNL     1      27.474   5.477  15.289  1.00  0.00    -0.248 NA
ATOM     27  C   UNL     1      27.609   6.680  13.216  1.00  0.00     0.037 A 
ATOM     28  C   UNL     1      28.771   5.156  15.152  1.00  0.00     0.151 A 
ATOM     29  C   UNL     1      28.942   6.327  13.101  1.00  0.00     0.043 A 
ATOM     30  C   UNL     1      29.538   5.559  14.083  1.00  0.00     0.141 A 
ATOM     31  F   UNL     1      30.826   5.184  14.009  1.00  0.00    -0.205 F 
ENDBRANCH  22  25
ENDBRANCH   3  21
TORSDOF 3
ENDMDL
MODEL 14
REMARK VINA RESULT:    -6.868      3.587      6.172
REMARK INTER + INTRA:          -8.256
REMARK INTER:                  -8.664
REMARK INTRA:                   0.408
REMARK UNBOUND:                -0.184
REMARK SMILES CN1C(N)=N[C@](C)(c2cc(NC(=O)c3ccc(F)cn3)ccc2F)CS1(=O)=O
REMARK SMILES IDX 8 1 9 2 10 3 21 4 22 5 23 6 24 7 6 8 25 9 5 10 26 11 3 12
REMARK SMILES IDX 27 13 2 14 28 15 4 16 7 17 1 18 11 21 12 22 13 23 14 25
REMARK SMILES IDX 20 26 15 27 19 28 16 29 17 30 18 31
REMARK H PARENT 4 19 4 20 11 24
ROOT
ATOM      1  C   UNL     1      23.752  12.281  20.975  1.00  0.00     0.018 A 
ATOM      2  C   UNL     1      23.503  11.028  20.418  1.00  0.00     0.035 A 
ATOM      3  C   UNL     1      22.825  10.042  21.098  1.00  0.00     0.042 A 
ATOM      4  C   UNL     1      22.379  10.262  22.395  1.00  0.00     0.029 A 
ATOM      5  C   UNL     1      22.614  11.501  22.963  1.00  0.00     0.042 A 
ATOM      6  C   UNL     1      23.267  12.492  22.256  1.00  0.00     0.129 A 
ATOM      7  F   UNL     1      23.460  13.710  22.825  1.00  0.00    -0.207 F 
ENDROOT
BRANCH   1   8
ATOM      8  C   UNL     1      24.501  13.352  20.196  1.00  0.00     0.105 C 
ATOM      9  C   UNL     1      25.638  12.842  19.338  1.00  0.00     0.195 C 
ATOM     10  N   UNL     1      24.971  14.432  21.061  1.00  0.00    -0.240 NA
ATOM     11  S   UNL     1      26.908  12.118  20.345  1.00  0.00     0.239 S 
ATOM     12  C   UNL     1      26.062  14.325  21.755  1.00  0.00     0.205 C 
ATOM     13  O   UNL     1      28.153  12.270  19.614  1.00  0.00    -0.206 OA
ATOM     14  N   UNL     1      26.950  13.230  21.658  1.00  0.00    -0.243 N 
ATOM     15  O   UNL     1      26.472  10.896  20.946  1.00  0.00    -0.206 OA
ATOM     16  N   UNL     1      26.466  15.292  22.636  1.00  0.00    -0.369 N 
ATOM     17  C   UNL     1      23.518  14.063  19.262  1.00  0.00     0.044 C 
ATOM     18  C   UNL     1      28.120  13.063  22.542  1.00  0.00     0.167 C 
ATOM     19  H   UNL     1      25.913  16.095  22.772  1.00  0.00     0.159 HD
ATOM     20  H   UNL     1      27.310  15.185  23.132  1.00  0.00     0.159 HD
ENDBRANCH   1   8
BRANCH   3  21
ATOM     21  N   UNL     1      22.644   8.826  20.426  1.00  0.00    -0.321 N 
ATOM     22  C   UNL     1      21.883   8.576  19.297  1.00  0.00     0.274 C 
ATOM     23  O   UNL     1      21.124   9.378  18.768  1.00  0.00    -0.267 OA
ATOM     24  H   UNL     1      23.119   8.051  20.804  1.00  0.00     0.170 HD
BRANCH  22  25
ATOM     25  C   UNL     1      22.061   7.231  18.699  1.00  0.00     0.128 A 
ATOM     26  N   UNL     1      22.104   7.177  17.364  1.00  0.00    -0.248 NA
ATOM     27  C   UNL     1      22.181   6.121  19.518  1.00  0.00     0.037 A 
ATOM     28  C   UNL     1      22.260   5.968  16.799  1.00  0.00     0.151 A 
ATOM     29  C   UNL     1      22.347   4.891  18.906  1.00  0.00     0.043 A 
ATOM     30  C   UNL     1      22.383   4.807  17.528  1.00  0.00     0.141 A 
ATOM     31  F   UNL     1      22.551   3.636  16.890  1.00  0.00    -0.205 F 
ENDBRANCH  22  25
ENDBRANCH   3  21
TORSDOF 3
ENDMDL
MODEL 15
REMARK VINA RESULT:    -6.795      5.329      8.382
REMARK INTER + INTRA:          -8.170
REMARK INTER:                  -7.756
REMARK INTRA:                  -0.414
REMARK UNBOUND:                -0.184
REMARK SMILES CN1C(N)=N[C@](C)(c2cc(NC(=O)c3ccc(F)cn3)ccc2F)CS1(=O)=O
REMARK SMILES IDX 8 1 9 2 10 3 21 4 22 5 23 6 24 7 6 8 25 9 5 10 26 11 3 12
REMARK SMILES IDX 27 13 2 14 28 15 4 16 7 17 1 18 11 21 12 22 13 23 14 25
REMARK SMILES IDX 20 26 15 27 19 28 16 29 17 30 18 31
REMARK H PARENT 4 19 4 20 11 24
ROOT
ATOM      1  C   UNL     1      23.451  11.847  19.452  1.00  0.00     0.018 A 
ATOM      2  C   UNL     1      23.485  10.619  18.795  1.00  0.00     0.035 A 
ATOM      3  C   UNL     1      22.925   9.481  19.330  1.00  0.00     0.042 A 
ATOM      4  C   UNL     1      22.315   9.517  20.578  1.00  0.00     0.029 A 
ATOM      5  C   UNL     1      22.269  10.729  21.244  1.00  0.00     0.042 A 
ATOM      6  C   UNL     1      22.806  11.869  20.680  1.00  0.00     0.129 A 
ATOM      7  F   UNL     1      22.722  13.052  21.341  1.00  0.00    -0.207 F 
ENDROOT
BRANCH   1   8
ATOM      8  C   UNL     1      24.076  13.088  18.833  1.00  0.00     0.105 C 
ATOM      9  C   UNL     1      23.185  14.310  18.808  1.00  0.00     0.195 C 
ATOM     10  N   UNL     1      24.606  12.825  17.496  1.00  0.00    -0.240 NA
ATOM     11  S   UNL     1      21.761  14.028  17.786  1.00  0.00     0.239 S 
ATOM     12  C   UNL     1      23.840  12.819  16.449  1.00  0.00     0.205 C 
ATOM     13  O   UNL     1      21.349  15.325  17.283  1.00  0.00    -0.206 OA
ATOM     14  N   UNL     1      22.473  13.173  16.472  1.00  0.00    -0.243 N 
ATOM     15  O   UNL     1      20.872  13.074  18.373  1.00  0.00    -0.206 OA
ATOM     16  N   UNL     1      24.307  12.488  15.204  1.00  0.00    -0.369 N 
ATOM     17  C   UNL     1      25.328  13.461  19.631  1.00  0.00     0.044 C 
ATOM     18  C   UNL     1      21.587  13.041  15.299  1.00  0.00     0.167 C 
ATOM     19  H   UNL     1      25.249  12.227  15.086  1.00  0.00     0.159 HD
ATOM     20  H   UNL     1      23.701  12.512  14.429  1.00  0.00     0.159 HD
ENDBRANCH   1   8
BRANCH   3  21
ATOM     21  N   UNL     1      23.031   8.310  18.567  1.00  0.00    -0.321 N 
ATOM     22  C   UNL     1      22.220   7.887  17.530  1.00  0.00     0.274 C 
ATOM     23  O   UNL     1      21.175   8.425  17.189  1.00  0.00    -0.267 OA
ATOM     24  H   UNL     1      23.779   7.713  18.800  1.00  0.00     0.170 HD
BRANCH  22  25
ATOM     25  C   UNL     1      22.715   6.707  16.780  1.00  0.00     0.128 A 
ATOM     26  N   UNL     1      23.124   6.929  15.527  1.00  0.00    -0.248 NA
ATOM     27  C   UNL     1      22.744   5.464  17.389  1.00  0.00     0.037 A 
ATOM     28  C   UNL     1      23.572   5.875  14.826  1.00  0.00     0.151 A 
ATOM     29  C   UNL     1      23.217   4.398  16.644  1.00  0.00     0.043 A 
ATOM     30  C   UNL     1      23.634   4.600  15.342  1.00  0.00     0.141 A 
ATOM     31  F   UNL     1      24.109   3.598  14.584  1.00  0.00    -0.205 F 
ENDBRANCH  22  25
ENDBRANCH   3  21
TORSDOF 3
ENDMDL
MODEL 16
REMARK VINA RESULT:    -6.765      3.618      6.109
REMARK INTER + INTRA:          -8.135
REMARK INTER:                  -7.714
REMARK INTRA:                  -0.421
REMARK UNBOUND:                -0.184
REMARK SMILES CN1C(N)=N[C@](C)(c2cc(NC(=O)c3ccc(F)cn3)ccc2F)CS1(=O)=O
REMARK SMILES IDX 8 1 9 2 10 3 21 4 22 5 23 6 24 7 6 8 25 9 5 10 26 11 3 12
REMARK SMILES IDX 27 13 2 14 28 15 4 16 7 17 1 18 11 21 12 22 13 23 14 25
REMARK SMILES IDX 20 26 15 27 19 28 16 29 17 30 18 31
REMARK H PARENT 4 19 4 20 11 24
ROOT
ATOM      1  C   UNL     1      25.326  12.847  22.879  1.00  0.00     0.018 A 
ATOM      2  C   UNL     1      24.820  11.806  22.103  1.00  0.00     0.035 A 
ATOM      3  C   UNL     1      23.507  11.402  22.178  1.00  0.00     0.042 A 
ATOM      4  C   UNL     1      22.631  12.018  23.064  1.00  0.00     0.029 A 
ATOM      5  C   UNL     1      23.115  13.056  23.840  1.00  0.00     0.042 A 
ATOM      6  C   UNL     1      24.427  13.472  23.731  1.00  0.00     0.129 A 
ATOM      7  F   UNL     1      24.869  14.512  24.482  1.00  0.00    -0.207 F 
ENDROOT
BRANCH   1   8
ATOM      8  C   UNL     1      26.782  13.272  22.771  1.00  0.00     0.105 C 
ATOM      9  C   UNL     1      27.001  14.733  22.446  1.00  0.00     0.195 C 
ATOM     10  N   UNL     1      27.531  12.433  21.837  1.00  0.00    -0.240 NA
ATOM     11  S   UNL     1      26.350  15.123  20.841  1.00  0.00     0.239 S 
ATOM     12  C   UNL     1      27.488  12.634  20.556  1.00  0.00     0.205 C 
ATOM     13  O   UNL     1      27.130  16.240  20.339  1.00  0.00    -0.206 OA
ATOM     14  N   UNL     1      26.828  13.728  19.953  1.00  0.00    -0.243 N 
ATOM     15  O   UNL     1      24.922  15.067  20.823  1.00  0.00    -0.206 OA
ATOM     16  N   UNL     1      28.113  11.802  19.665  1.00  0.00    -0.369 N 
ATOM     17  C   UNL     1      27.477  13.001  24.108  1.00  0.00     0.044 C 
ATOM     18  C   UNL     1      26.683  13.874  18.491  1.00  0.00     0.167 C 
ATOM     19  H   UNL     1      28.600  11.011  19.989  1.00  0.00     0.159 HD
ATOM     20  H   UNL     1      28.074  11.996  18.700  1.00  0.00     0.159 HD
ENDBRANCH   1   8
BRANCH   3  21
ATOM     21  N   UNL     1      23.127  10.341  21.345  1.00  0.00    -0.321 N 
ATOM     22  C   UNL     1      22.491  10.400  20.119  1.00  0.00     0.274 C 
ATOM     23  O   UNL     1      22.031  11.415  19.612  1.00  0.00    -0.267 OA
ATOM     24  H   UNL     1      23.342   9.439  21.676  1.00  0.00     0.170 HD
BRANCH  22  25
ATOM     25  C   UNL     1      22.414   9.114  19.383  1.00  0.00     0.128 A 
ATOM     26  N   UNL     1      21.561   8.205  19.865  1.00  0.00    -0.248 NA
ATOM     27  C   UNL     1      23.194   8.915  18.257  1.00  0.00     0.037 A 
ATOM     28  C   UNL     1      21.477   7.031  19.218  1.00  0.00     0.151 A 
ATOM     29  C   UNL     1      23.081   7.698  17.608  1.00  0.00     0.043 A 
ATOM     30  C   UNL     1      22.216   6.737  18.094  1.00  0.00     0.141 A 
ATOM     31  F   UNL     1      22.066   5.545  17.492  1.00  0.00    -0.205 F 
ENDBRANCH  22  25
ENDBRANCH   3  21
TORSDOF 3
ENDMDL
MODEL 17
REMARK VINA RESULT:    -6.749      3.184      4.459
REMARK INTER + INTRA:          -8.117
REMARK INTER:                  -7.675
REMARK INTRA:                  -0.442
REMARK UNBOUND:                -0.184
REMARK SMILES CN1C(N)=N[C@](C)(c2cc(NC(=O)c3ccc(F)cn3)ccc2F)CS1(=O)=O
REMARK SMILES IDX 8 1 9 2 10 3 21 4 22 5 23 6 24 7 6 8 25 9 5 10 26 11 3 12
REMARK SMILES IDX 27 13 2 14 28 15 4 16 7 17 1 18 11 21 12 22 13 23 14 25
REMARK SMILES IDX 20 26 15 27 19 28 16 29 17 30 18 31
REMARK H PARENT 4 19 4 20 11 24
ROOT
ATOM      1  C   UNL     1      25.436  11.496  19.373  1.00  0.00     0.018 A 
ATOM      2  C   UNL     1      24.692  11.235  20.523  1.00  0.00     0.035 A 
ATOM      3  C   UNL     1      25.044  11.733  21.757  1.00  0.00     0.042 A 
ATOM      4  C   UNL     1      26.186  12.510  21.902  1.00  0.00     0.029 A 
ATOM      5  C   UNL     1      26.935  12.782  20.771  1.00  0.00     0.042 A 
ATOM      6  C   UNL     1      26.553  12.302  19.534  1.00  0.00     0.129 A 
ATOM      7  F   UNL     1      27.289  12.608  18.435  1.00  0.00    -0.207 F 
ENDROOT
BRANCH   1   8
ATOM      8  C   UNL     1      25.019  10.933  18.023  1.00  0.00     0.105 C 
ATOM      9  C   UNL     1      24.908  11.951  16.911  1.00  0.00     0.195 C 
ATOM     10  N   UNL     1      23.788  10.149  18.112  1.00  0.00    -0.240 NA
ATOM     11  S   UNL     1      23.628  13.129  17.265  1.00  0.00     0.239 S 
ATOM     12  C   UNL     1      22.620  10.714  18.117  1.00  0.00     0.205 C 
ATOM     13  O   UNL     1      23.138  13.606  15.984  1.00  0.00    -0.206 OA
ATOM     14  N   UNL     1      22.415  12.098  17.922  1.00  0.00    -0.243 N 
ATOM     15  O   UNL     1      23.981  13.980  18.358  1.00  0.00    -0.206 OA
ATOM     16  N   UNL     1      21.464  10.000  18.288  1.00  0.00    -0.369 N 
ATOM     17  C   UNL     1      26.055   9.895  17.580  1.00  0.00     0.044 C 
ATOM     18  C   UNL     1      21.094  12.743  18.053  1.00  0.00     0.167 C 
ATOM     19  H   UNL     1      21.504   9.027  18.431  1.00  0.00     0.159 HD
ATOM     20  H   UNL     1      20.594  10.460  18.267  1.00  0.00     0.159 HD
ENDBRANCH   1   8
BRANCH   3  21
ATOM     21  N   UNL     1      24.212  11.394  22.831  1.00  0.00    -0.321 N 
ATOM     22  C   UNL     1      23.347  12.211  23.538  1.00  0.00     0.274 C 
ATOM     23  O   UNL     1      23.265  13.426  23.412  1.00  0.00    -0.267 OA
ATOM     24  H   UNL     1      24.246  10.453  23.121  1.00  0.00     0.170 HD
BRANCH  22  25
ATOM     25  C   UNL     1      22.445  11.511  24.484  1.00  0.00     0.128 A 
ATOM     26  N   UNL     1      21.745  12.286  25.319  1.00  0.00    -0.248 NA
ATOM     27  C   UNL     1      22.356  10.130  24.461  1.00  0.00     0.037 A 
ATOM     28  C   UNL     1      20.924  11.674  26.189  1.00  0.00     0.151 A 
ATOM     29  C   UNL     1      21.497   9.529  25.364  1.00  0.00     0.043 A 
ATOM     30  C   UNL     1      20.772  10.307  26.246  1.00  0.00     0.141 A 
ATOM     31  F   UNL     1      19.920   9.769  27.134  1.00  0.00    -0.205 F 
ENDBRANCH  22  25
ENDBRANCH   3  21
TORSDOF 3
ENDMDL
MODEL 18
REMARK VINA RESULT:    -6.732      5.257      7.432
REMARK INTER + INTRA:          -8.096
REMARK INTER:                  -7.858
REMARK INTRA:                  -0.239
REMARK UNBOUND:                -0.184
REMARK SMILES CN1C(N)=N[C@](C)(c2cc(NC(=O)c3ccc(F)cn3)ccc2F)CS1(=O)=O
REMARK SMILES IDX 8 1 9 2 10 3 21 4 22 5 23 6 24 7 6 8 25 9 5 10 26 11 3 12
REMARK SMILES IDX 27 13 2 14 28 15 4 16 7 17 1 18 11 21 12 22 13 23 14 25
REMARK SMILES IDX 20 26 15 27 19 28 16 29 17 30 18 31
REMARK H PARENT 4 19 4 20 11 24
ROOT
ATOM      1  C   UNL     1      21.580  11.555  17.182  1.00  0.00     0.018 A 
ATOM      2  C   UNL     1      21.494  10.226  17.594  1.00  0.00     0.035 A 
ATOM      3  C   UNL     1      21.222   9.200  16.717  1.00  0.00     0.042 A 
ATOM      4  C   UNL     1      20.998   9.464  15.372  1.00  0.00     0.029 A 
ATOM      5  C   UNL     1      21.083  10.778  14.945  1.00  0.00     0.042 A 
ATOM      6  C   UNL     1      21.388  11.793  15.829  1.00  0.00     0.129 A 
ATOM      7  F   UNL     1      21.494  13.070  15.379  1.00  0.00    -0.207 F 
ENDROOT
BRANCH   1   8
ATOM      8  C   UNL     1      21.885  12.667  18.174  1.00  0.00     0.105 C 
ATOM      9  C   UNL     1      23.131  13.469  17.874  1.00  0.00     0.195 C 
ATOM     10  N   UNL     1      21.922  12.178  19.551  1.00  0.00    -0.240 NA
ATOM     11  S   UNL     1      24.576  12.442  17.968  1.00  0.00     0.239 S 
ATOM     12  C   UNL     1      22.974  11.598  20.041  1.00  0.00     0.205 C 
ATOM     13  O   UNL     1      25.680  13.312  18.331  1.00  0.00    -0.206 OA
ATOM     14  N   UNL     1      24.202  11.488  19.352  1.00  0.00    -0.243 N 
ATOM     15  O   UNL     1      24.619  11.492  16.900  1.00  0.00    -0.206 OA
ATOM     16  N   UNL     1      22.992  11.057  21.298  1.00  0.00    -0.369 N 
ATOM     17  C   UNL     1      20.711  13.650  18.190  1.00  0.00     0.044 C 
ATOM     18  C   UNL     1      25.350  10.718  19.871  1.00  0.00     0.167 C 
ATOM     19  H   UNL     1      22.182  11.085  21.858  1.00  0.00     0.159 HD
ATOM     20  H   UNL     1      23.815  10.641  21.644  1.00  0.00     0.159 HD
ENDBRANCH   1   8
BRANCH   3  21
ATOM     21  N   UNL     1      21.161   7.910  17.261  1.00  0.00    -0.321 N 
ATOM     22  C   UNL     1      21.857   6.781  16.868  1.00  0.00     0.274 C 
ATOM     23  O   UNL     1      22.563   6.700  15.871  1.00  0.00    -0.267 OA
ATOM     24  H   UNL     1      20.545   7.793  18.020  1.00  0.00     0.170 HD
BRANCH  22  25
ATOM     25  C   UNL     1      21.735   5.614  17.775  1.00  0.00     0.128 A 
ATOM     26  N   UNL     1      21.261   4.488  17.233  1.00  0.00    -0.248 NA
ATOM     27  C   UNL     1      22.114   5.728  19.102  1.00  0.00     0.037 A 
ATOM     28  C   UNL     1      21.138   3.419  18.036  1.00  0.00     0.151 A 
ATOM     29  C   UNL     1      21.981   4.607  19.903  1.00  0.00     0.043 A 
ATOM     30  C   UNL     1      21.481   3.435  19.369  1.00  0.00     0.141 A 
ATOM     31  F   UNL     1      21.343   2.320  20.106  1.00  0.00    -0.205 F 
ENDBRANCH  22  25
ENDBRANCH   3  21
TORSDOF 3
ENDMDL
MODEL 19
REMARK VINA RESULT:    -6.645      4.481      6.429
REMARK INTER + INTRA:          -7.994
REMARK INTER:                  -7.567
REMARK INTRA:                  -0.427
REMARK UNBOUND:                -0.184
REMARK SMILES CN1C(N)=N[C@](C)(c2cc(NC(=O)c3ccc(F)cn3)ccc2F)CS1(=O)=O
REMARK SMILES IDX 8 1 9 2 10 3 21 4 22 5 23 6 24 7 6 8 25 9 5 10 26 11 3 12
REMARK SMILES IDX 27 13 2 14 28 15 4 16 7 17 1 18 11 21 12 22 13 23 14 25
REMARK SMILES IDX 20 26 15 27 19 28 16 29 17 30 18 31
REMARK H PARENT 4 19 4 20 11 24
ROOT
ATOM      1  C   UNL     1      23.981  12.209  19.838  1.00  0.00     0.018 A 
ATOM      2  C   UNL     1      23.805  10.837  19.663  1.00  0.00     0.035 A 
ATOM      3  C   UNL     1      22.828  10.318  18.845  1.00  0.00     0.042 A 
ATOM      4  C   UNL     1      21.954  11.161  18.171  1.00  0.00     0.029 A 
ATOM      5  C   UNL     1      22.116  12.526  18.329  1.00  0.00     0.042 A 
ATOM      6  C   UNL     1      23.121  13.034  19.128  1.00  0.00     0.129 A 
ATOM      7  F   UNL     1      23.277  14.377  19.243  1.00  0.00    -0.207 F 
ENDROOT
BRANCH   1   8
ATOM      8  C   UNL     1      25.073  12.752  20.747  1.00  0.00     0.105 C 
ATOM      9  C   UNL     1      25.983  13.779  20.112  1.00  0.00     0.195 C 
ATOM     10  N   UNL     1      25.866  11.682  21.350  1.00  0.00    -0.240 NA
ATOM     11  S   UNL     1      26.900  13.061  18.772  1.00  0.00     0.239 S 
ATOM     12  C   UNL     1      26.835  11.107  20.708  1.00  0.00     0.205 C 
ATOM     13  O   UNL     1      28.137  13.813  18.667  1.00  0.00    -0.206 OA
ATOM     14  N   UNL     1      27.292  11.523  19.438  1.00  0.00    -0.243 N 
ATOM     15  O   UNL     1      26.054  12.748  17.662  1.00  0.00    -0.206 OA
ATOM     16  N   UNL     1      27.528  10.046  21.227  1.00  0.00    -0.369 N 
ATOM     17  C   UNL     1      24.419  13.420  21.959  1.00  0.00     0.044 C 
ATOM     18  C   UNL     1      28.311  10.783  18.667  1.00  0.00     0.167 C 
ATOM     19  H   UNL     1      27.284   9.684  22.110  1.00  0.00     0.159 HD
ATOM     20  H   UNL     1      28.270   9.646  20.719  1.00  0.00     0.159 HD
ENDBRANCH   1   8
BRANCH   3  21
ATOM     21  N   UNL     1      22.757   8.921  18.760  1.00  0.00    -0.321 N 
ATOM     22  C   UNL     1      22.015   8.052  19.540  1.00  0.00     0.274 C 
ATOM     23  O   UNL     1      21.383   8.367  20.540  1.00  0.00    -0.267 OA
ATOM     24  H   UNL     1      23.304   8.506  18.055  1.00  0.00     0.170 HD
BRANCH  22  25
ATOM     25  C   UNL     1      21.986   6.646  19.068  1.00  0.00     0.128 A 
ATOM     26  N   UNL     1      21.173   5.816  19.730  1.00  0.00    -0.248 NA
ATOM     27  C   UNL     1      22.766   6.262  17.992  1.00  0.00     0.037 A 
ATOM     28  C   UNL     1      21.132   4.536  19.323  1.00  0.00     0.151 A 
ATOM     29  C   UNL     1      22.699   4.939  17.593  1.00  0.00     0.043 A 
ATOM     30  C   UNL     1      21.875   4.058  18.268  1.00  0.00     0.141 A 
ATOM     31  F   UNL     1      21.770   2.767  17.911  1.00  0.00    -0.205 F 
ENDBRANCH  22  25
ENDBRANCH   3  21
TORSDOF 3
ENDMDL
MODEL 20
REMARK VINA RESULT:    -6.582      4.580      6.055
REMARK INTER + INTRA:          -7.920
REMARK INTER:                  -7.514
REMARK INTRA:                  -0.406
REMARK UNBOUND:                -0.184
REMARK SMILES CN1C(N)=N[C@](C)(c2cc(NC(=O)c3ccc(F)cn3)ccc2F)CS1(=O)=O
REMARK SMILES IDX 8 1 9 2 10 3 21 4 22 5 23 6 24 7 6 8 25 9 5 10 26 11 3 12
REMARK SMILES IDX 27 13 2 14 28 15 4 16 7 17 1 18 11 21 12 22 13 23 14 25
REMARK SMILES IDX 20 26 15 27 19 28 16 29 17 30 18 31
REMARK H PARENT 4 19 4 20 11 24
ROOT
ATOM      1  C   UNL     1      21.712   8.625  17.319  1.00  0.00     0.018 A 
ATOM      2  C   UNL     1      21.949   9.428  18.434  1.00  0.00     0.035 A 
ATOM      3  C   UNL     1      21.947   8.927  19.716  1.00  0.00     0.042 A 
ATOM      4  C   UNL     1      21.681   7.582  19.945  1.00  0.00     0.029 A 
ATOM      5  C   UNL     1      21.448   6.770  18.849  1.00  0.00     0.042 A 
ATOM      6  C   UNL     1      21.485   7.280  17.567  1.00  0.00     0.129 A 
ATOM      7  F   UNL     1      21.281   6.456  16.507  1.00  0.00    -0.207 F 
ENDROOT
BRANCH   1   8
ATOM      8  C   UNL     1      21.724   9.209  15.914  1.00  0.00     0.105 C 
ATOM      9  C   UNL     1      22.670   8.532  14.947  1.00  0.00     0.195 C 
ATOM     10  N   UNL     1      21.961  10.651  15.922  1.00  0.00    -0.240 NA
ATOM     11  S   UNL     1      24.353   8.727  15.476  1.00  0.00     0.239 S 
ATOM     12  C   UNL     1      23.157  11.145  16.021  1.00  0.00     0.205 C 
ATOM     13  O   UNL     1      25.171   8.678  14.278  1.00  0.00    -0.206 OA
ATOM     14  N   UNL     1      24.333  10.363  16.013  1.00  0.00    -0.243 N 
ATOM     15  O   UNL     1      24.623   7.980  16.664  1.00  0.00    -0.206 OA
ATOM     16  N   UNL     1      23.386  12.491  16.118  1.00  0.00    -0.369 N 
ATOM     17  C   UNL     1      20.317   9.096  15.320  1.00  0.00     0.044 C 
ATOM     18  C   UNL     1      25.676  10.927  16.252  1.00  0.00     0.167 C 
ATOM     19  H   UNL     1      22.628  13.120  16.131  1.00  0.00     0.159 HD
ATOM     20  H   UNL     1      24.308  12.831  16.174  1.00  0.00     0.159 HD
ENDBRANCH   1   8
BRANCH   3  21
ATOM     21  N   UNL     1      22.196   9.841  20.748  1.00  0.00    -0.321 N 
ATOM     22  C   UNL     1      23.347   9.990  21.501  1.00  0.00     0.274 C 
ATOM     23  O   UNL     1      24.312   9.238  21.468  1.00  0.00    -0.267 OA
ATOM     24  H   UNL     1      21.458  10.456  20.964  1.00  0.00     0.170 HD
BRANCH  22  25
ATOM     25  C   UNL     1      23.380  11.187  22.376  1.00  0.00     0.128 A 
ATOM     26  N   UNL     1      24.252  12.143  22.039  1.00  0.00    -0.248 NA
ATOM     27  C   UNL     1      22.529  11.271  23.465  1.00  0.00     0.037 A 
ATOM     28  C   UNL     1      24.303  13.235  22.820  1.00  0.00     0.151 A 
ATOM     29  C   UNL     1      22.602  12.411  24.246  1.00  0.00     0.043 A 
ATOM     30  C   UNL     1      23.503  13.408  23.926  1.00  0.00     0.141 A 
ATOM     31  F   UNL     1      23.602  14.537  24.649  1.00  0.00    -0.205 F 
ENDBRANCH  22  25
ENDBRANCH   3  21
TORSDOF 3
ENDMDL
