MODEL 1
REMARK VINA RESULT:    -9.522      0.000      0.000
REMARK INTER + INTRA:         -10.792
REMARK INTER:                 -11.192
REMARK INTRA:                   0.400
REMARK UNBOUND:                 0.400
REMARK SMILES CN1C(N)=N[C@](C)(c2cc(NC(=O)c3ccc(F)cn3)ccc2F)CS1(=O)=O
REMARK SMILES IDX 8 1 9 2 10 3 21 4 22 5 23 6 24 7 6 8 25 9 5 10 26 11 3 12
REMARK SMILES IDX 27 13 2 14 28 15 4 16 7 17 1 18 11 21 12 22 13 23 14 25
REMARK SMILES IDX 20 26 15 27 19 28 16 29 17 30 18 31
REMARK H PARENT 4 19 4 20 11 24
ROOT
ATOM      1  C   UNL     1      15.207   4.551  20.401  1.00  0.00     0.018 A 
ATOM      2  C   UNL     1      16.118   4.366  21.439  1.00  0.00     0.035 A 
ATOM      3  C   UNL     1      16.532   5.399  22.249  1.00  0.00     0.042 A 
ATOM      4  C   UNL     1      16.062   6.689  22.039  1.00  0.00     0.029 A 
ATOM      5  C   UNL     1      15.154   6.891  21.015  1.00  0.00     0.042 A 
ATOM      6  C   UNL     1      14.723   5.839  20.230  1.00  0.00     0.129 A 
ATOM      7  F   UNL     1      13.809   6.059  19.251  1.00  0.00    -0.207 F 
ENDROOT
BRANCH   1   8
ATOM      8  C   UNL     1      14.767   3.389  19.525  1.00  0.00     0.105 C 
ATOM      9  C   UNL     1      15.862   2.412  19.158  1.00  0.00     0.195 C 
ATOM     10  N   UNL     1      14.074   3.841  18.319  1.00  0.00    -0.240 NA
ATOM     11  S   UNL     1      17.106   3.206  18.172  1.00  0.00     0.239 S 
ATOM     12  C   UNL     1      14.722   4.245  17.271  1.00  0.00     0.205 C 
ATOM     13  O   UNL     1      17.702   2.172  17.346  1.00  0.00    -0.206 OA
ATOM     14  N   UNL     1      16.128   4.180  17.144  1.00  0.00    -0.243 N 
ATOM     15  O   UNL     1      17.854   4.157  18.933  1.00  0.00    -0.206 OA
ATOM     16  N   UNL     1      14.088   4.754  16.170  1.00  0.00    -0.369 N 
ATOM     17  C   UNL     1      13.686   2.594  20.264  1.00  0.00     0.044 C 
ATOM     18  C   UNL     1      16.859   4.758  15.999  1.00  0.00     0.167 C 
ATOM     19  H   UNL     1      13.107   4.840  16.163  1.00  0.00     0.159 HD
ATOM     20  H   UNL     1      14.612   5.035  15.385  1.00  0.00     0.159 HD
ENDBRANCH   1   8
BRANCH   3  21
ATOM     21  N   UNL     1      17.453   5.078  23.254  1.00  0.00    -0.321 N 
ATOM     22  C   UNL     1      18.795   5.407  23.324  1.00  0.00     0.274 C 
ATOM     23  O   UNL     1      19.437   5.939  22.428  1.00  0.00    -0.267 OA
ATOM     24  H   UNL     1      17.100   4.551  24.008  1.00  0.00     0.170 HD
BRANCH  22  25
ATOM     25  C   UNL     1      19.455   5.104  24.617  1.00  0.00     0.128 A 
ATOM     26  N   UNL     1      20.161   3.969  24.671  1.00  0.00    -0.248 NA
ATOM     27  C   UNL     1      19.329   5.982  25.680  1.00  0.00     0.037 A 
ATOM     28  C   UNL     1      20.764   3.672  25.834  1.00  0.00     0.151 A 
ATOM     29  C   UNL     1      19.967   5.650  26.862  1.00  0.00     0.043 A 
ATOM     30  C   UNL     1      20.693   4.478  26.947  1.00  0.00     0.141 A 
ATOM     31  F   UNL     1      21.337   4.119  28.071  1.00  0.00    -0.205 F 
ENDBRANCH  22  25
ENDBRANCH   3  21
TORSDOF 3
ENDMDL
MODEL 2
REMARK VINA RESULT:    -9.369      5.792      9.726
REMARK INTER + INTRA:         -10.612
REMARK INTER:                 -10.218
REMARK INTRA:                  -0.394
REMARK UNBOUND:                 0.400
REMARK SMILES CN1C(N)=N[C@](C)(c2cc(NC(=O)c3ccc(F)cn3)ccc2F)CS1(=O)=O
REMARK SMILES IDX 8 1 9 2 10 3 21 4 22 5 23 6 24 7 6 8 25 9 5 10 26 11 3 12
REMARK SMILES IDX 27 13 2 14 28 15 4 16 7 17 1 18 11 21 12 22 13 23 14 25
REMARK SMILES IDX 20 26 15 27 19 28 16 29 17 30 18 31
REMARK H PARENT 4 19 4 20 11 24
ROOT
ATOM      1  C   UNL     1      18.780  11.320  25.698  1.00  0.00     0.018 A 
ATOM      2  C   UNL     1      18.482  10.438  24.661  1.00  0.00     0.035 A 
ATOM      3  C   UNL     1      17.348  10.562  23.892  1.00  0.00     0.042 A 
ATOM      4  C   UNL     1      16.434  11.578  24.145  1.00  0.00     0.029 A 
ATOM      5  C   UNL     1      16.715  12.465  25.169  1.00  0.00     0.042 A 
ATOM      6  C   UNL     1      17.874  12.347  25.911  1.00  0.00     0.129 A 
ATOM      7  F   UNL     1      18.141  13.248  26.892  1.00  0.00    -0.207 F 
ENDROOT
BRANCH   1   8
ATOM      8  C   UNL     1      20.044  11.158  26.528  1.00  0.00     0.105 C 
ATOM      9  C   UNL     1      20.920  12.388  26.609  1.00  0.00     0.195 C 
ATOM     10  N   UNL     1      20.836  10.005  26.102  1.00  0.00    -0.240 NA
ATOM     11  S   UNL     1      21.548  12.818  25.006  1.00  0.00     0.239 S 
ATOM     12  C   UNL     1      21.640  10.069  25.086  1.00  0.00     0.205 C 
ATOM     13  O   UNL     1      22.809  13.503  25.224  1.00  0.00    -0.206 OA
ATOM     14  N   UNL     1      21.918  11.258  24.377  1.00  0.00    -0.243 N 
ATOM     15  O   UNL     1      20.512  13.297  24.145  1.00  0.00    -0.206 OA
ATOM     16  N   UNL     1      22.320   8.974  24.623  1.00  0.00    -0.369 N 
ATOM     17  C   UNL     1      19.651  10.792  27.962  1.00  0.00     0.044 C 
ATOM     18  C   UNL     1      22.736  11.291  23.149  1.00  0.00     0.167 C 
ATOM     19  H   UNL     1      22.193   8.098  25.053  1.00  0.00     0.159 HD
ATOM     20  H   UNL     1      22.936   9.064  23.860  1.00  0.00     0.159 HD
ENDBRANCH   1   8
BRANCH   3  21
ATOM     21  N   UNL     1      17.166   9.608  22.882  1.00  0.00    -0.321 N 
ATOM     22  C   UNL     1      16.448   8.426  22.939  1.00  0.00     0.274 C 
ATOM     23  O   UNL     1      15.950   7.953  23.952  1.00  0.00    -0.267 OA
ATOM     24  H   UNL     1      17.604   9.804  22.023  1.00  0.00     0.170 HD
BRANCH  22  25
ATOM     25  C   UNL     1      16.267   7.733  21.641  1.00  0.00     0.128 A 
ATOM     26  N   UNL     1      17.378   7.491  20.937  1.00  0.00    -0.248 NA
ATOM     27  C   UNL     1      14.999   7.364  21.226  1.00  0.00     0.037 A 
ATOM     28  C   UNL     1      17.238   6.868  19.756  1.00  0.00     0.151 A 
ATOM     29  C   UNL     1      14.888   6.718  20.008  1.00  0.00     0.043 A 
ATOM     30  C   UNL     1      16.019   6.468  19.256  1.00  0.00     0.141 A 
ATOM     31  F   UNL     1      15.962   5.835  18.071  1.00  0.00    -0.205 F 
ENDBRANCH  22  25
ENDBRANCH   3  21
TORSDOF 3
ENDMDL
MODEL 3
REMARK VINA RESULT:    -9.034      9.960     11.781
REMARK INTER + INTRA:         -10.218
REMARK INTER:                  -9.903
REMARK INTRA:                  -0.316
REMARK UNBOUND:                 0.400
REMARK SMILES CN1C(N)=N[C@](C)(c2cc(NC(=O)c3ccc(F)cn3)ccc2F)CS1(=O)=O
REMARK SMILES IDX 8 1 9 2 10 3 21 4 22 5 23 6 24 7 6 8 25 9 5 10 26 11 3 12
REMARK SMILES IDX 27 13 2 14 28 15 4 16 7 17 1 18 11 21 12 22 13 23 14 25
REMARK SMILES IDX 20 26 15 27 19 28 16 29 17 30 18 31
REMARK H PARENT 4 19 4 20 11 24
ROOT
ATOM      1  C   UNL     1      24.224  11.768  20.464  1.00  0.00     0.018 A 
ATOM      2  C   UNL     1      24.027  12.213  21.770  1.00  0.00     0.035 A 
ATOM      3  C   UNL     1      23.426  11.432  22.731  1.00  0.00     0.042 A 
ATOM      4  C   UNL     1      22.968  10.159  22.418  1.00  0.00     0.029 A 
ATOM      5  C   UNL     1      23.158   9.699  21.127  1.00  0.00     0.042 A 
ATOM      6  C   UNL     1      23.791  10.481  20.181  1.00  0.00     0.129 A 
ATOM      7  F   UNL     1      23.991   9.995  18.929  1.00  0.00    -0.207 F 
ENDROOT
BRANCH   1   8
ATOM      8  C   UNL     1      24.894  12.653  19.425  1.00  0.00     0.105 C 
ATOM      9  C   UNL     1      26.137  12.070  18.792  1.00  0.00     0.195 C 
ATOM     10  N   UNL     1      25.174  13.991  19.943  1.00  0.00    -0.240 NA
ATOM     11  S   UNL     1      27.412  11.844  20.006  1.00  0.00     0.239 S 
ATOM     12  C   UNL     1      26.221  14.235  20.670  1.00  0.00     0.205 C 
ATOM     13  O   UNL     1      28.677  11.938  19.300  1.00  0.00    -0.206 OA
ATOM     14  N   UNL     1      27.235  13.286  20.930  1.00  0.00    -0.243 N 
ATOM     15  O   UNL     1      27.082  10.804  20.930  1.00  0.00    -0.206 OA
ATOM     16  N   UNL     1      26.450  15.461  21.234  1.00  0.00    -0.369 N 
ATOM     17  C   UNL     1      23.900  12.926  18.292  1.00  0.00     0.044 C 
ATOM     18  C   UNL     1      28.355  13.539  21.858  1.00  0.00     0.167 C 
ATOM     19  H   UNL     1      25.799  16.189  21.109  1.00  0.00     0.159 HD
ATOM     20  H   UNL     1      27.265  15.615  21.765  1.00  0.00     0.159 HD
ENDBRANCH   1   8
BRANCH   3  21
ATOM     21  N   UNL     1      23.287  12.000  24.004  1.00  0.00    -0.321 N 
ATOM     22  C   UNL     1      22.354  12.929  24.431  1.00  0.00     0.274 C 
ATOM     23  O   UNL     1      21.560  13.513  23.706  1.00  0.00    -0.267 OA
ATOM     24  H   UNL     1      23.935  11.699  24.682  1.00  0.00     0.170 HD
BRANCH  22  25
ATOM     25  C   UNL     1      22.331  13.178  25.893  1.00  0.00     0.128 A 
ATOM     26  N   UNL     1      23.357  13.875  26.392  1.00  0.00    -0.248 NA
ATOM     27  C   UNL     1      21.279  12.704  26.658  1.00  0.00     0.037 A 
ATOM     28  C   UNL     1      23.360  14.109  27.715  1.00  0.00     0.151 A 
ATOM     29  C   UNL     1      21.308  12.966  28.016  1.00  0.00     0.043 A 
ATOM     30  C   UNL     1      22.363  13.674  28.558  1.00  0.00     0.141 A 
ATOM     31  F   UNL     1      22.429  13.961  29.870  1.00  0.00    -0.205 F 
ENDBRANCH  22  25
ENDBRANCH   3  21
TORSDOF 3
ENDMDL
MODEL 4
REMARK VINA RESULT:    -8.972      7.331     10.231
REMARK INTER + INTRA:         -10.146
REMARK INTER:                  -9.926
REMARK INTRA:                  -0.220
REMARK UNBOUND:                 0.400
REMARK SMILES CN1C(N)=N[C@](C)(c2cc(NC(=O)c3ccc(F)cn3)ccc2F)CS1(=O)=O
REMARK SMILES IDX 8 1 9 2 10 3 21 4 22 5 23 6 24 7 6 8 25 9 5 10 26 11 3 12
REMARK SMILES IDX 27 13 2 14 28 15 4 16 7 17 1 18 11 21 12 22 13 23 14 25
REMARK SMILES IDX 20 26 15 27 19 28 16 29 17 30 18 31
REMARK H PARENT 4 19 4 20 11 24
ROOT
ATOM      1  C   UNL     1      19.364  11.759  25.874  1.00  0.00     0.018 A 
ATOM      2  C   UNL     1      19.527  10.412  26.193  1.00  0.00     0.035 A 
ATOM      3  C   UNL     1      20.466   9.618  25.575  1.00  0.00     0.042 A 
ATOM      4  C   UNL     1      21.283  10.139  24.579  1.00  0.00     0.029 A 
ATOM      5  C   UNL     1      21.137  11.476  24.253  1.00  0.00     0.042 A 
ATOM      6  C   UNL     1      20.213  12.268  24.903  1.00  0.00     0.129 A 
ATOM      7  F   UNL     1      20.110  13.584  24.584  1.00  0.00    -0.207 F 
ENDROOT
BRANCH   1   8
ATOM      8  C   UNL     1      18.319  12.611  26.577  1.00  0.00     0.105 C 
ATOM      9  C   UNL     1      18.785  13.991  26.984  1.00  0.00     0.195 C 
ATOM     10  N   UNL     1      17.730  11.922  27.724  1.00  0.00    -0.240 NA
ATOM     11  S   UNL     1      20.087  13.884  28.186  1.00  0.00     0.239 S 
ATOM     12  C   UNL     1      18.323  11.889  28.877  1.00  0.00     0.205 C 
ATOM     13  O   UNL     1      20.018  15.097  28.980  1.00  0.00    -0.206 OA
ATOM     14  N   UNL     1      19.509  12.596  29.172  1.00  0.00    -0.243 N 
ATOM     15  O   UNL     1      21.290  13.365  27.615  1.00  0.00    -0.206 OA
ATOM     16  N   UNL     1      17.826  11.173  29.934  1.00  0.00    -0.369 N 
ATOM     17  C   UNL     1      17.123  12.800  25.639  1.00  0.00     0.044 C 
ATOM     18  C   UNL     1      20.238  12.450  30.447  1.00  0.00     0.167 C 
ATOM     19  H   UNL     1      17.001  10.647  29.827  1.00  0.00     0.159 HD
ATOM     20  H   UNL     1      18.293  11.186  30.800  1.00  0.00     0.159 HD
ENDBRANCH   1   8
BRANCH   3  21
ATOM     21  N   UNL     1      20.525   8.280  25.986  1.00  0.00    -0.321 N 
ATOM     22  C   UNL     1      19.729   7.223  25.582  1.00  0.00     0.274 C 
ATOM     23  O   UNL     1      18.735   7.321  24.874  1.00  0.00    -0.267 OA
ATOM     24  H   UNL     1      21.223   8.064  26.646  1.00  0.00     0.170 HD
BRANCH  22  25
ATOM     25  C   UNL     1      20.174   5.884  26.038  1.00  0.00     0.128 A 
ATOM     26  N   UNL     1      20.729   5.096  25.110  1.00  0.00    -0.248 NA
ATOM     27  C   UNL     1      20.014   5.516  27.362  1.00  0.00     0.037 A 
ATOM     28  C   UNL     1      21.136   3.877  25.499  1.00  0.00     0.151 A 
ATOM     29  C   UNL     1      20.449   4.256  27.733  1.00  0.00     0.043 A 
ATOM     30  C   UNL     1      21.014   3.419  26.791  1.00  0.00     0.141 A 
ATOM     31  F   UNL     1      21.460   2.190  27.106  1.00  0.00    -0.205 F 
ENDBRANCH  22  25
ENDBRANCH   3  21
TORSDOF 3
ENDMDL
MODEL 5
REMARK VINA RESULT:    -8.732      4.537      6.007
REMARK INTER + INTRA:          -9.864
REMARK INTER:                  -9.732
REMARK INTRA:                  -0.132
REMARK UNBOUND:                 0.400
REMARK SMILES CN1C(N)=N[C@](C)(c2cc(NC(=O)c3ccc(F)cn3)ccc2F)CS1(=O)=O
REMARK SMILES IDX 8 1 9 2 10 3 21 4 22 5 23 6 24 7 6 8 25 9 5 10 26 11 3 12
REMARK SMILES IDX 27 13 2 14 28 15 4 16 7 17 1 18 11 21 12 22 13 23 14 25
REMARK SMILES IDX 20 26 15 27 19 28 16 29 17 30 18 31
REMARK H PARENT 4 19 4 20 11 24
ROOT
ATOM      1  C   UNL     1      16.599   7.587  21.505  1.00  0.00     0.018 A 
ATOM      2  C   UNL     1      17.441   8.474  22.173  1.00  0.00     0.035 A 
ATOM      3  C   UNL     1      16.963   9.556  22.877  1.00  0.00     0.042 A 
ATOM      4  C   UNL     1      15.598   9.815  22.927  1.00  0.00     0.029 A 
ATOM      5  C   UNL     1      14.747   8.942  22.273  1.00  0.00     0.042 A 
ATOM      6  C   UNL     1      15.239   7.843  21.597  1.00  0.00     0.129 A 
ATOM      7  F   UNL     1      14.380   6.986  20.988  1.00  0.00    -0.207 F 
ENDROOT
BRANCH   1   8
ATOM      8  C   UNL     1      17.159   6.399  20.738  1.00  0.00     0.105 C 
ATOM      9  C   UNL     1      16.608   5.052  21.151  1.00  0.00     0.195 C 
ATOM     10  N   UNL     1      18.620   6.372  20.759  1.00  0.00    -0.240 NA
ATOM     11  S   UNL     1      17.046   4.685  22.832  1.00  0.00     0.239 S 
ATOM     12  C   UNL     1      19.278   5.893  21.769  1.00  0.00     0.205 C 
ATOM     13  O   UNL     1      17.096   3.238  22.940  1.00  0.00    -0.206 OA
ATOM     14  N   UNL     1      18.669   5.256  22.873  1.00  0.00    -0.243 N 
ATOM     15  O   UNL     1      16.360   5.536  23.754  1.00  0.00    -0.206 OA
ATOM     16  N   UNL     1      20.645   5.942  21.841  1.00  0.00    -0.369 N 
ATOM     17  C   UNL     1      16.840   6.576  19.251  1.00  0.00     0.044 C 
ATOM     18  C   UNL     1      19.420   4.828  24.070  1.00  0.00     0.167 C 
ATOM     19  H   UNL     1      21.160   6.366  21.117  1.00  0.00     0.159 HD
ATOM     20  H   UNL     1      21.112   5.552  22.615  1.00  0.00     0.159 HD
ENDBRANCH   1   8
BRANCH   3  21
ATOM     21  N   UNL     1      17.916  10.371  23.500  1.00  0.00    -0.321 N 
ATOM     22  C   UNL     1      17.836  10.996  24.732  1.00  0.00     0.274 C 
ATOM     23  O   UNL     1      16.836  11.038  25.436  1.00  0.00    -0.267 OA
ATOM     24  H   UNL     1      18.750  10.518  22.997  1.00  0.00     0.170 HD
BRANCH  22  25
ATOM     25  C   UNL     1      19.095  11.619  25.209  1.00  0.00     0.128 A 
ATOM     26  N   UNL     1      19.541  11.214  26.402  1.00  0.00    -0.248 NA
ATOM     27  C   UNL     1      19.743  12.556  24.423  1.00  0.00     0.037 A 
ATOM     28  C   UNL     1      20.678  11.768  26.857  1.00  0.00     0.151 A 
ATOM     29  C   UNL     1      20.914  13.104  24.916  1.00  0.00     0.043 A 
ATOM     30  C   UNL     1      21.390  12.711  26.152  1.00  0.00     0.141 A 
ATOM     31  F   UNL     1      22.527  13.208  26.668  1.00  0.00    -0.205 F 
ENDBRANCH  22  25
ENDBRANCH   3  21
TORSDOF 3
ENDMDL
MODEL 6
REMARK VINA RESULT:    -8.655      3.127      8.239
REMARK INTER + INTRA:          -9.773
REMARK INTER:                 -10.456
REMARK INTRA:                   0.684
REMARK UNBOUND:                 0.400
REMARK SMILES CN1C(N)=N[C@](C)(c2cc(NC(=O)c3ccc(F)cn3)ccc2F)CS1(=O)=O
REMARK SMILES IDX 8 1 9 2 10 3 21 4 22 5 23 6 24 7 6 8 25 9 5 10 26 11 3 12
REMARK SMILES IDX 27 13 2 14 28 15 4 16 7 17 1 18 11 21 12 22 13 23 14 25
REMARK SMILES IDX 20 26 15 27 19 28 16 29 17 30 18 31
REMARK H PARENT 4 19 4 20 11 24
ROOT
ATOM      1  C   UNL     1      18.760   7.414  22.437  1.00  0.00     0.018 A 
ATOM      2  C   UNL     1      18.084   6.646  21.491  1.00  0.00     0.035 A 
ATOM      3  C   UNL     1      16.775   6.892  21.142  1.00  0.00     0.042 A 
ATOM      4  C   UNL     1      16.066   7.920  21.750  1.00  0.00     0.029 A 
ATOM      5  C   UNL     1      16.722   8.695  22.690  1.00  0.00     0.042 A 
ATOM      6  C   UNL     1      18.045   8.457  23.007  1.00  0.00     0.129 A 
ATOM      7  F   UNL     1      18.675   9.251  23.911  1.00  0.00    -0.207 F 
ENDROOT
BRANCH   1   8
ATOM      8  C   UNL     1      20.207   7.119  22.799  1.00  0.00     0.105 C 
ATOM      9  C   UNL     1      20.576   5.653  22.822  1.00  0.00     0.195 C 
ATOM     10  N   UNL     1      20.599   7.755  24.056  1.00  0.00    -0.240 NA
ATOM     11  S   UNL     1      19.667   4.797  24.083  1.00  0.00     0.239 S 
ATOM     12  C   UNL     1      20.316   7.224  25.205  1.00  0.00     0.205 C 
ATOM     13  O   UNL     1      20.485   3.669  24.490  1.00  0.00    -0.206 OA
ATOM     14  N   UNL     1      19.721   5.952  25.358  1.00  0.00    -0.243 N 
ATOM     15  O   UNL     1      18.277   4.707  23.762  1.00  0.00    -0.206 OA
ATOM     16  N   UNL     1      20.598   7.851  26.389  1.00  0.00    -0.369 N 
ATOM     17  C   UNL     1      21.121   7.796  21.773  1.00  0.00     0.044 C 
ATOM     18  C   UNL     1      19.292   5.416  26.665  1.00  0.00     0.167 C 
ATOM     19  H   UNL     1      21.015   8.743  26.387  1.00  0.00     0.159 HD
ATOM     20  H   UNL     1      20.385   7.410  27.244  1.00  0.00     0.159 HD
ENDBRANCH   1   8
BRANCH   3  21
ATOM     21  N   UNL     1      16.212   6.044  20.179  1.00  0.00    -0.321 N 
ATOM     22  C   UNL     1      14.890   5.662  20.041  1.00  0.00     0.274 C 
ATOM     23  O   UNL     1      13.997   5.913  20.840  1.00  0.00    -0.267 OA
ATOM     24  H   UNL     1      16.838   5.672  19.516  1.00  0.00     0.170 HD
BRANCH  22  25
ATOM     25  C   UNL     1      14.570   4.924  18.795  1.00  0.00     0.128 A 
ATOM     26  N   UNL     1      15.049   3.679  18.705  1.00  0.00    -0.248 NA
ATOM     27  C   UNL     1      13.806   5.527  17.811  1.00  0.00     0.037 A 
ATOM     28  C   UNL     1      14.776   2.991  17.583  1.00  0.00     0.151 A 
ATOM     29  C   UNL     1      13.537   4.791  16.670  1.00  0.00     0.043 A 
ATOM     30  C   UNL     1      14.030   3.507  16.547  1.00  0.00     0.141 A 
ATOM     31  F   UNL     1      13.787   2.751  15.463  1.00  0.00    -0.205 F 
ENDBRANCH  22  25
ENDBRANCH   3  21
TORSDOF 3
ENDMDL
MODEL 7
REMARK VINA RESULT:    -8.422      9.435     11.295
REMARK INTER + INTRA:          -9.499
REMARK INTER:                  -9.429
REMARK INTRA:                  -0.070
REMARK UNBOUND:                 0.400
REMARK SMILES CN1C(N)=N[C@](C)(c2cc(NC(=O)c3ccc(F)cn3)ccc2F)CS1(=O)=O
REMARK SMILES IDX 8 1 9 2 10 3 21 4 22 5 23 6 24 7 6 8 25 9 5 10 26 11 3 12
REMARK SMILES IDX 27 13 2 14 28 15 4 16 7 17 1 18 11 21 12 22 13 23 14 25
REMARK SMILES IDX 20 26 15 27 19 28 16 29 17 30 18 31
REMARK H PARENT 4 19 4 20 11 24
ROOT
ATOM      1  C   UNL     1      24.148  11.463  20.593  1.00  0.00     0.018 A 
ATOM      2  C   UNL     1      23.417  11.449  21.780  1.00  0.00     0.035 A 
ATOM      3  C   UNL     1      23.051  10.279  22.406  1.00  0.00     0.042 A 
ATOM      4  C   UNL     1      23.386   9.050  21.851  1.00  0.00     0.029 A 
ATOM      5  C   UNL     1      24.114   9.045  20.674  1.00  0.00     0.042 A 
ATOM      6  C   UNL     1      24.502  10.227  20.075  1.00  0.00     0.129 A 
ATOM      7  F   UNL     1      25.241  10.195  18.936  1.00  0.00    -0.207 F 
ENDROOT
BRANCH   1   8
ATOM      8  C   UNL     1      24.540  12.773  19.928  1.00  0.00     0.105 C 
ATOM      9  C   UNL     1      25.947  12.816  19.376  1.00  0.00     0.195 C 
ATOM     10  N   UNL     1      24.308  13.923  20.801  1.00  0.00    -0.240 NA
ATOM     11  S   UNL     1      27.138  12.659  20.682  1.00  0.00     0.239 S 
ATOM     12  C   UNL     1      25.157  14.261  21.722  1.00  0.00     0.205 C 
ATOM     13  O   UNL     1      28.338  13.342  20.233  1.00  0.00    -0.206 OA
ATOM     14  N   UNL     1      26.416  13.643  21.896  1.00  0.00    -0.243 N 
ATOM     15  O   UNL     1      27.126  11.348  21.253  1.00  0.00    -0.206 OA
ATOM     16  N   UNL     1      24.912  15.280  22.604  1.00  0.00    -0.369 N 
ATOM     17  C   UNL     1      23.590  13.036  18.756  1.00  0.00     0.044 C 
ATOM     18  C   UNL     1      27.316  13.954  23.024  1.00  0.00     0.167 C 
ATOM     19  H   UNL     1      24.060  15.772  22.562  1.00  0.00     0.159 HD
ATOM     20  H   UNL     1      25.587  15.520  23.278  1.00  0.00     0.159 HD
ENDBRANCH   1   8
BRANCH   3  21
ATOM     21  N   UNL     1      22.316  10.404  23.592  1.00  0.00    -0.321 N 
ATOM     22  C   UNL     1      22.605  11.178  24.701  1.00  0.00     0.274 C 
ATOM     23  O   UNL     1      23.646  11.797  24.877  1.00  0.00    -0.267 OA
ATOM     24  H   UNL     1      21.488   9.874  23.642  1.00  0.00     0.170 HD
BRANCH  22  25
ATOM     25  C   UNL     1      21.524  11.263  25.714  1.00  0.00     0.128 A 
ATOM     26  N   UNL     1      21.905  11.535  26.966  1.00  0.00    -0.248 NA
ATOM     27  C   UNL     1      20.206  11.073  25.335  1.00  0.00     0.037 A 
ATOM     28  C   UNL     1      20.943  11.612  27.901  1.00  0.00     0.151 A 
ATOM     29  C   UNL     1      19.239  11.164  26.320  1.00  0.00     0.043 A 
ATOM     30  C   UNL     1      19.607  11.433  27.624  1.00  0.00     0.141 A 
ATOM     31  F   UNL     1      18.702  11.540  28.611  1.00  0.00    -0.205 F 
ENDBRANCH  22  25
ENDBRANCH   3  21
TORSDOF 3
ENDMDL
MODEL 8
REMARK VINA RESULT:    -8.360      8.754     11.010
REMARK INTER + INTRA:          -9.426
REMARK INTER:                  -9.517
REMARK INTRA:                   0.091
REMARK UNBOUND:                 0.400
REMARK SMILES CN1C(N)=N[C@](C)(c2cc(NC(=O)c3ccc(F)cn3)ccc2F)CS1(=O)=O
REMARK SMILES IDX 8 1 9 2 10 3 21 4 22 5 23 6 24 7 6 8 25 9 5 10 26 11 3 12
REMARK SMILES IDX 27 13 2 14 28 15 4 16 7 17 1 18 11 21 12 22 13 23 14 25
REMARK SMILES IDX 20 26 15 27 19 28 16 29 17 30 18 31
REMARK H PARENT 4 19 4 20 11 24
ROOT
ATOM      1  C   UNL     1      24.932  11.268  19.855  1.00  0.00     0.018 A 
ATOM      2  C   UNL     1      24.128  10.581  20.764  1.00  0.00     0.035 A 
ATOM      3  C   UNL     1      24.280   9.236  21.010  1.00  0.00     0.042 A 
ATOM      4  C   UNL     1      25.243   8.500  20.331  1.00  0.00     0.029 A 
ATOM      5  C   UNL     1      26.053   9.166  19.428  1.00  0.00     0.042 A 
ATOM      6  C   UNL     1      25.911  10.523  19.215  1.00  0.00     0.129 A 
ATOM      7  F   UNL     1      26.737  11.159  18.345  1.00  0.00    -0.207 F 
ENDROOT
BRANCH   1   8
ATOM      8  C   UNL     1      24.742  12.756  19.607  1.00  0.00     0.105 C 
ATOM      9  C   UNL     1      26.011  13.579  19.640  1.00  0.00     0.195 C 
ATOM     10  N   UNL     1      23.743  13.339  20.502  1.00  0.00    -0.240 NA
ATOM     11  S   UNL     1      26.746  13.534  21.256  1.00  0.00     0.239 S 
ATOM     12  C   UNL     1      24.037  13.688  21.716  1.00  0.00     0.205 C 
ATOM     13  O   UNL     1      27.488  14.772  21.408  1.00  0.00    -0.206 OA
ATOM     14  N   UNL     1      25.345  13.654  22.249  1.00  0.00    -0.243 N 
ATOM     15  O   UNL     1      27.271  12.239  21.560  1.00  0.00    -0.206 OA
ATOM     16  N   UNL     1      23.092  14.151  22.592  1.00  0.00    -0.369 N 
ATOM     17  C   UNL     1      24.117  12.951  18.223  1.00  0.00     0.044 C 
ATOM     18  C   UNL     1      25.644  13.935  23.667  1.00  0.00     0.167 C 
ATOM     19  H   UNL     1      22.150  14.212  22.313  1.00  0.00     0.159 HD
ATOM     20  H   UNL     1      23.355  14.424  23.501  1.00  0.00     0.159 HD
ENDBRANCH   1   8
BRANCH   3  21
ATOM     21  N   UNL     1      23.405   8.666  21.945  1.00  0.00    -0.321 N 
ATOM     22  C   UNL     1      22.629   9.307  22.894  1.00  0.00     0.274 C 
ATOM     23  O   UNL     1      22.683  10.501  23.158  1.00  0.00    -0.267 OA
ATOM     24  H   UNL     1      23.334   7.684  21.923  1.00  0.00     0.170 HD
BRANCH  22  25
ATOM     25  C   UNL     1      21.646   8.446  23.595  1.00  0.00     0.128 A 
ATOM     26  N   UNL     1      21.317   8.813  24.838  1.00  0.00    -0.248 NA
ATOM     27  C   UNL     1      21.117   7.339  22.955  1.00  0.00     0.037 A 
ATOM     28  C   UNL     1      20.431   8.046  25.495  1.00  0.00     0.151 A 
ATOM     29  C   UNL     1      20.203   6.572  23.655  1.00  0.00     0.043 A 
ATOM     30  C   UNL     1      19.855   6.923  24.945  1.00  0.00     0.141 A 
ATOM     31  F   UNL     1      18.965   6.214  25.661  1.00  0.00    -0.205 F 
ENDBRANCH  22  25
ENDBRANCH   3  21
TORSDOF 3
ENDMDL
MODEL 9
REMARK VINA RESULT:    -8.352      6.626      9.507
REMARK INTER + INTRA:          -9.416
REMARK INTER:                  -9.814
REMARK INTRA:                   0.398
REMARK UNBOUND:                 0.400
REMARK SMILES CN1C(N)=N[C@](C)(c2cc(NC(=O)c3ccc(F)cn3)ccc2F)CS1(=O)=O
REMARK SMILES IDX 8 1 9 2 10 3 21 4 22 5 23 6 24 7 6 8 25 9 5 10 26 11 3 12
REMARK SMILES IDX 27 13 2 14 28 15 4 16 7 17 1 18 11 21 12 22 13 23 14 25
REMARK SMILES IDX 20 26 15 27 19 28 16 29 17 30 18 31
REMARK H PARENT 4 19 4 20 11 24
ROOT
ATOM      1  C   UNL     1      19.513  11.138  25.028  1.00  0.00     0.018 A 
ATOM      2  C   UNL     1      19.962   9.820  25.093  1.00  0.00     0.035 A 
ATOM      3  C   UNL     1      19.182   8.756  24.701  1.00  0.00     0.042 A 
ATOM      4  C   UNL     1      17.888   8.965  24.240  1.00  0.00     0.029 A 
ATOM      5  C   UNL     1      17.426  10.267  24.166  1.00  0.00     0.042 A 
ATOM      6  C   UNL     1      18.232  11.327  24.533  1.00  0.00     0.129 A 
ATOM      7  F   UNL     1      17.766  12.598  24.423  1.00  0.00    -0.207 F 
ENDROOT
BRANCH   1   8
ATOM      8  C   UNL     1      20.401  12.292  25.466  1.00  0.00     0.105 C 
ATOM      9  C   UNL     1      21.532  11.914  26.396  1.00  0.00     0.195 C 
ATOM     10  N   UNL     1      19.628  13.393  26.037  1.00  0.00    -0.240 NA
ATOM     11  S   UNL     1      20.897  11.293  27.934  1.00  0.00     0.239 S 
ATOM     12  C   UNL     1      19.226  13.376  27.270  1.00  0.00     0.205 C 
ATOM     13  O   UNL     1      21.902  11.580  28.942  1.00  0.00    -0.206 OA
ATOM     14  N   UNL     1      19.585  12.374  28.200  1.00  0.00    -0.243 N 
ATOM     15  O   UNL     1      20.265  10.022  27.768  1.00  0.00    -0.206 OA
ATOM     16  N   UNL     1      18.427  14.357  27.793  1.00  0.00    -0.369 N 
ATOM     17  C   UNL     1      21.035  12.926  24.224  1.00  0.00     0.044 C 
ATOM     18  C   UNL     1      19.020  12.301  29.562  1.00  0.00     0.167 C 
ATOM     19  H   UNL     1      18.123  15.100  27.222  1.00  0.00     0.159 HD
ATOM     20  H   UNL     1      18.156  14.321  28.739  1.00  0.00     0.159 HD
ENDBRANCH   1   8
BRANCH   3  21
ATOM     21  N   UNL     1      19.752   7.482  24.819  1.00  0.00    -0.321 N 
ATOM     22  C   UNL     1      20.636   6.856  23.959  1.00  0.00     0.274 C 
ATOM     23  O   UNL     1      20.971   7.281  22.861  1.00  0.00    -0.267 OA
ATOM     24  H   UNL     1      19.490   6.966  25.616  1.00  0.00     0.170 HD
BRANCH  22  25
ATOM     25  C   UNL     1      21.225   5.592  24.465  1.00  0.00     0.128 A 
ATOM     26  N   UNL     1      22.425   5.259  23.978  1.00  0.00    -0.248 NA
ATOM     27  C   UNL     1      20.538   4.836  25.399  1.00  0.00     0.037 A 
ATOM     28  C   UNL     1      22.976   4.117  24.419  1.00  0.00     0.151 A 
ATOM     29  C   UNL     1      21.135   3.667  25.839  1.00  0.00     0.043 A 
ATOM     30  C   UNL     1      22.369   3.295  25.341  1.00  0.00     0.141 A 
ATOM     31  F   UNL     1      22.991   2.174  25.745  1.00  0.00    -0.205 F 
ENDBRANCH  22  25
ENDBRANCH   3  21
TORSDOF 3
ENDMDL
MODEL 10
REMARK VINA RESULT:    -8.297      5.611      7.581
REMARK INTER + INTRA:          -9.352
REMARK INTER:                  -8.904
REMARK INTRA:                  -0.448
REMARK UNBOUND:                 0.400
REMARK SMILES CN1C(N)=N[C@](C)(c2cc(NC(=O)c3ccc(F)cn3)ccc2F)CS1(=O)=O
REMARK SMILES IDX 8 1 9 2 10 3 21 4 22 5 23 6 24 7 6 8 25 9 5 10 26 11 3 12
REMARK SMILES IDX 27 13 2 14 28 15 4 16 7 17 1 18 11 21 12 22 13 23 14 25
REMARK SMILES IDX 20 26 15 27 19 28 16 29 17 30 18 31
REMARK H PARENT 4 19 4 20 11 24
ROOT
ATOM      1  C   UNL     1      18.567   7.934  23.185  1.00  0.00     0.018 A 
ATOM      2  C   UNL     1      19.514   8.907  23.502  1.00  0.00     0.035 A 
ATOM      3  C   UNL     1      19.217   9.994  24.292  1.00  0.00     0.042 A 
ATOM      4  C   UNL     1      17.932  10.172  24.789  1.00  0.00     0.029 A 
ATOM      5  C   UNL     1      16.979   9.214  24.487  1.00  0.00     0.042 A 
ATOM      6  C   UNL     1      17.301   8.112  23.720  1.00  0.00     0.129 A 
ATOM      7  F   UNL     1      16.355   7.172  23.462  1.00  0.00    -0.207 F 
ENDROOT
BRANCH   1   8
ATOM      8  C   UNL     1      18.928   6.742  22.312  1.00  0.00     0.105 C 
ATOM      9  C   UNL     1      18.622   5.390  22.916  1.00  0.00     0.195 C 
ATOM     10  N   UNL     1      20.319   6.790  21.866  1.00  0.00    -0.240 NA
ATOM     11  S   UNL     1      19.592   5.122  24.378  1.00  0.00     0.239 S 
ATOM     12  C   UNL     1      21.292   6.392  22.625  1.00  0.00     0.205 C 
ATOM     13  O   UNL     1      19.765   3.686  24.504  1.00  0.00    -0.206 OA
ATOM     14  N   UNL     1      21.106   5.776  23.883  1.00  0.00    -0.243 N 
ATOM     15  O   UNL     1      19.183   5.979  25.447  1.00  0.00    -0.206 OA
ATOM     16  N   UNL     1      22.605   6.513  22.255  1.00  0.00    -0.369 N 
ATOM     17  C   UNL     1      18.143   6.835  21.000  1.00  0.00     0.044 C 
ATOM     18  C   UNL     1      22.223   5.442  24.789  1.00  0.00     0.167 C 
ATOM     19  H   UNL     1      22.837   6.929  21.394  1.00  0.00     0.159 HD
ATOM     20  H   UNL     1      23.317   6.183  22.850  1.00  0.00     0.159 HD
ENDBRANCH   1   8
BRANCH   3  21
ATOM     21  N   UNL     1      20.259  10.899  24.533  1.00  0.00    -0.321 N 
ATOM     22  C   UNL     1      20.995  11.070  25.691  1.00  0.00     0.274 C 
ATOM     23  O   UNL     1      20.759  10.526  26.762  1.00  0.00    -0.267 OA
ATOM     24  H   UNL     1      20.498  11.488  23.781  1.00  0.00     0.170 HD
BRANCH  22  25
ATOM     25  C   UNL     1      22.173  11.963  25.567  1.00  0.00     0.128 A 
ATOM     26  N   UNL     1      22.391  12.801  26.586  1.00  0.00    -0.248 NA
ATOM     27  C   UNL     1      22.980  11.890  24.446  1.00  0.00     0.037 A 
ATOM     28  C   UNL     1      23.449  13.623  26.494  1.00  0.00     0.151 A 
ATOM     29  C   UNL     1      24.067  12.745  24.383  1.00  0.00     0.043 A 
ATOM     30  C   UNL     1      24.306  13.629  25.417  1.00  0.00     0.141 A 
ATOM     31  F   UNL     1      25.353  14.472  25.405  1.00  0.00    -0.205 F 
ENDBRANCH  22  25
ENDBRANCH   3  21
TORSDOF 3
ENDMDL
MODEL 11
REMARK VINA RESULT:    -8.284     10.373     12.160
REMARK INTER + INTRA:          -9.336
REMARK INTER:                  -8.939
REMARK INTRA:                  -0.398
REMARK UNBOUND:                 0.400
REMARK SMILES CN1C(N)=N[C@](C)(c2cc(NC(=O)c3ccc(F)cn3)ccc2F)CS1(=O)=O
REMARK SMILES IDX 8 1 9 2 10 3 21 4 22 5 23 6 24 7 6 8 25 9 5 10 26 11 3 12
REMARK SMILES IDX 27 13 2 14 28 15 4 16 7 17 1 18 11 21 12 22 13 23 14 25
REMARK SMILES IDX 20 26 15 27 19 28 16 29 17 30 18 31
REMARK H PARENT 4 19 4 20 11 24
ROOT
ATOM      1  C   UNL     1      25.327  10.935  19.666  1.00  0.00     0.018 A 
ATOM      2  C   UNL     1      25.968   9.858  20.277  1.00  0.00     0.035 A 
ATOM      3  C   UNL     1      26.116   8.640  19.654  1.00  0.00     0.042 A 
ATOM      4  C   UNL     1      25.601   8.433  18.381  1.00  0.00     0.029 A 
ATOM      5  C   UNL     1      24.964   9.492  17.757  1.00  0.00     0.042 A 
ATOM      6  C   UNL     1      24.852  10.719  18.381  1.00  0.00     0.129 A 
ATOM      7  F   UNL     1      24.249  11.750  17.736  1.00  0.00    -0.207 F 
ENDROOT
BRANCH   1   8
ATOM      8  C   UNL     1      25.183  12.271  20.378  1.00  0.00     0.105 C 
ATOM      9  C   UNL     1      25.656  13.472  19.591  1.00  0.00     0.195 C 
ATOM     10  N   UNL     1      25.808  12.258  21.700  1.00  0.00    -0.240 NA
ATOM     11  S   UNL     1      27.401  13.371  19.282  1.00  0.00     0.239 S 
ATOM     12  C   UNL     1      27.084  12.437  21.851  1.00  0.00     0.205 C 
ATOM     13  O   UNL     1      27.879  14.736  19.156  1.00  0.00    -0.206 OA
ATOM     14  N   UNL     1      27.961  12.772  20.796  1.00  0.00    -0.243 N 
ATOM     15  O   UNL     1      27.714  12.322  18.363  1.00  0.00    -0.206 OA
ATOM     16  N   UNL     1      27.696  12.340  23.072  1.00  0.00    -0.369 N 
ATOM     17  C   UNL     1      23.704  12.501  20.702  1.00  0.00     0.044 C 
ATOM     18  C   UNL     1      29.426  12.850  20.961  1.00  0.00     0.167 C 
ATOM     19  H   UNL     1      27.167  12.110  23.871  1.00  0.00     0.159 HD
ATOM     20  H   UNL     1      28.664  12.500  23.153  1.00  0.00     0.159 HD
ENDBRANCH   1   8
BRANCH   3  21
ATOM     21  N   UNL     1      26.778   7.641  20.380  1.00  0.00    -0.321 N 
ATOM     22  C   UNL     1      26.233   6.536  21.011  1.00  0.00     0.274 C 
ATOM     23  O   UNL     1      25.036   6.322  21.146  1.00  0.00    -0.267 OA
ATOM     24  H   UNL     1      27.755   7.736  20.449  1.00  0.00     0.170 HD
BRANCH  22  25
ATOM     25  C   UNL     1      27.216   5.547  21.517  1.00  0.00     0.128 A 
ATOM     26  N   UNL     1      28.506   5.842  21.326  1.00  0.00    -0.248 NA
ATOM     27  C   UNL     1      26.776   4.401  22.155  1.00  0.00     0.037 A 
ATOM     28  C   UNL     1      29.414   4.959  21.772  1.00  0.00     0.151 A 
ATOM     29  C   UNL     1      27.736   3.513  22.609  1.00  0.00     0.043 A 
ATOM     30  C   UNL     1      29.075   3.789  22.413  1.00  0.00     0.141 A 
ATOM     31  F   UNL     1      30.043   2.962  22.844  1.00  0.00    -0.205 F 
ENDBRANCH  22  25
ENDBRANCH   3  21
TORSDOF 3
ENDMDL
MODEL 12
REMARK VINA RESULT:    -8.180      5.979      8.103
REMARK INTER + INTRA:          -9.215
REMARK INTER:                  -8.980
REMARK INTRA:                  -0.235
REMARK UNBOUND:                 0.400
REMARK SMILES CN1C(N)=N[C@](C)(c2cc(NC(=O)c3ccc(F)cn3)ccc2F)CS1(=O)=O
REMARK SMILES IDX 8 1 9 2 10 3 21 4 22 5 23 6 24 7 6 8 25 9 5 10 26 11 3 12
REMARK SMILES IDX 27 13 2 14 28 15 4 16 7 17 1 18 11 21 12 22 13 23 14 25
REMARK SMILES IDX 20 26 15 27 19 28 16 29 17 30 18 31
REMARK H PARENT 4 19 4 20 11 24
ROOT
ATOM      1  C   UNL     1      19.440   7.537  23.475  1.00  0.00     0.018 A 
ATOM      2  C   UNL     1      20.392   8.551  23.389  1.00  0.00     0.035 A 
ATOM      3  C   UNL     1      20.289   9.721  24.107  1.00  0.00     0.042 A 
ATOM      4  C   UNL     1      19.199   9.941  24.940  1.00  0.00     0.029 A 
ATOM      5  C   UNL     1      18.246   8.943  25.041  1.00  0.00     0.042 A 
ATOM      6  C   UNL     1      18.379   7.761  24.339  1.00  0.00     0.129 A 
ATOM      7  F   UNL     1      17.445   6.786  24.478  1.00  0.00    -0.207 F 
ENDROOT
BRANCH   1   8
ATOM      8  C   UNL     1      19.585   6.254  22.671  1.00  0.00     0.105 C 
ATOM      9  C   UNL     1      19.228   4.987  23.417  1.00  0.00     0.195 C 
ATOM     10  N   UNL     1      20.913   6.128  22.073  1.00  0.00    -0.240 NA
ATOM     11  S   UNL     1      20.334   4.730  24.781  1.00  0.00     0.239 S 
ATOM     12  C   UNL     1      21.927   5.690  22.753  1.00  0.00     0.205 C 
ATOM     13  O   UNL     1      20.387   3.297  25.008  1.00  0.00    -0.206 OA
ATOM     14  N   UNL     1      21.834   5.189  24.071  1.00  0.00    -0.243 N 
ATOM     15  O   UNL     1      20.134   5.700  25.813  1.00  0.00    -0.206 OA
ATOM     16  N   UNL     1      23.193   5.650  22.232  1.00  0.00    -0.369 N 
ATOM     17  C   UNL     1      18.664   6.330  21.450  1.00  0.00     0.044 C 
ATOM     18  C   UNL     1      23.013   4.811  24.874  1.00  0.00     0.167 C 
ATOM     19  H   UNL     1      23.360   5.977  21.319  1.00  0.00     0.159 HD
ATOM     20  H   UNL     1      23.936   5.294  22.771  1.00  0.00     0.159 HD
ENDBRANCH   1   8
BRANCH   3  21
ATOM     21  N   UNL     1      21.312  10.661  23.927  1.00  0.00    -0.321 N 
ATOM     22  C   UNL     1      22.254  11.089  24.845  1.00  0.00     0.274 C 
ATOM     23  O   UNL     1      22.261  10.797  26.034  1.00  0.00    -0.267 OA
ATOM     24  H   UNL     1      21.368  11.068  23.032  1.00  0.00     0.170 HD
BRANCH  22  25
ATOM     25  C   UNL     1      23.338  11.936  24.292  1.00  0.00     0.128 A 
ATOM     26  N   UNL     1      24.098  12.582  25.183  1.00  0.00    -0.248 NA
ATOM     27  C   UNL     1      23.524  12.015  22.923  1.00  0.00     0.037 A 
ATOM     28  C   UNL     1      25.084  13.359  24.705  1.00  0.00     0.151 A 
ATOM     29  C   UNL     1      24.551  12.819  22.462  1.00  0.00     0.043 A 
ATOM     30  C   UNL     1      25.343  13.506  23.362  1.00  0.00     0.141 A 
ATOM     31  F   UNL     1      26.358  14.291  22.961  1.00  0.00    -0.205 F 
ENDBRANCH  22  25
ENDBRANCH   3  21
TORSDOF 3
ENDMDL
MODEL 13
REMARK VINA RESULT:    -8.165      6.006      8.382
REMARK INTER + INTRA:          -9.197
REMARK INTER:                  -9.270
REMARK INTRA:                   0.073
REMARK UNBOUND:                 0.400
REMARK SMILES CN1C(N)=N[C@](C)(c2cc(NC(=O)c3ccc(F)cn3)ccc2F)CS1(=O)=O
REMARK SMILES IDX 8 1 9 2 10 3 21 4 22 5 23 6 24 7 6 8 25 9 5 10 26 11 3 12
REMARK SMILES IDX 27 13 2 14 28 15 4 16 7 17 1 18 11 21 12 22 13 23 14 25
REMARK SMILES IDX 20 26 15 27 19 28 16 29 17 30 18 31
REMARK H PARENT 4 19 4 20 11 24
ROOT
ATOM      1  C   UNL     1      20.831   6.652  23.890  1.00  0.00     0.018 A 
ATOM      2  C   UNL     1      21.407   7.739  23.235  1.00  0.00     0.035 A 
ATOM      3  C   UNL     1      22.511   7.608  22.423  1.00  0.00     0.042 A 
ATOM      4  C   UNL     1      23.110   6.368  22.245  1.00  0.00     0.029 A 
ATOM      5  C   UNL     1      22.549   5.277  22.884  1.00  0.00     0.042 A 
ATOM      6  C   UNL     1      21.423   5.418  23.670  1.00  0.00     0.129 A 
ATOM      7  F   UNL     1      20.874   4.326  24.264  1.00  0.00    -0.207 F 
ENDROOT
BRANCH   1   8
ATOM      8  C   UNL     1      19.609   6.828  24.778  1.00  0.00     0.105 C 
ATOM      9  C   UNL     1      18.480   5.856  24.516  1.00  0.00     0.195 C 
ATOM     10  N   UNL     1      19.105   8.201  24.753  1.00  0.00    -0.240 NA
ATOM     11  S   UNL     1      17.823   6.084  22.883  1.00  0.00     0.239 S 
ATOM     12  C   UNL     1      18.339   8.628  23.797  1.00  0.00     0.205 C 
ATOM     13  O   UNL     1      16.435   5.660  22.932  1.00  0.00    -0.206 OA
ATOM     14  N   UNL     1      17.827   7.802  22.772  1.00  0.00    -0.243 N 
ATOM     15  O   UNL     1      18.753   5.675  21.878  1.00  0.00    -0.206 OA
ATOM     16  N   UNL     1      17.933   9.933  23.714  1.00  0.00    -0.369 N 
ATOM     17  C   UNL     1      20.029   6.644  26.239  1.00  0.00     0.044 C 
ATOM     18  C   UNL     1      17.061   8.326  21.624  1.00  0.00     0.167 C 
ATOM     19  H   UNL     1      18.238  10.586  24.385  1.00  0.00     0.159 HD
ATOM     20  H   UNL     1      17.337  10.218  22.985  1.00  0.00     0.159 HD
ENDBRANCH   1   8
BRANCH   3  21
ATOM     21  N   UNL     1      22.993   8.781  21.826  1.00  0.00    -0.321 N 
ATOM     22  C   UNL     1      24.189   8.972  21.156  1.00  0.00     0.274 C 
ATOM     23  O   UNL     1      25.097   8.154  21.089  1.00  0.00    -0.267 OA
ATOM     24  H   UNL     1      22.406   9.568  21.891  1.00  0.00     0.170 HD
BRANCH  22  25
ATOM     25  C   UNL     1      24.319  10.271  20.452  1.00  0.00     0.128 A 
ATOM     26  N   UNL     1      25.393  11.006  20.758  1.00  0.00    -0.248 NA
ATOM     27  C   UNL     1      23.362  10.655  19.529  1.00  0.00     0.037 A 
ATOM     28  C   UNL     1      25.530  12.188  20.135  1.00  0.00     0.151 A 
ATOM     29  C   UNL     1      23.534  11.876  18.900  1.00  0.00     0.043 A 
ATOM     30  C   UNL     1      24.630  12.660  19.207  1.00  0.00     0.141 A 
ATOM     31  F   UNL     1      24.844  13.847  18.616  1.00  0.00    -0.205 F 
ENDBRANCH  22  25
ENDBRANCH   3  21
TORSDOF 3
ENDMDL
MODEL 14
REMARK VINA RESULT:    -8.159      3.528      8.137
REMARK INTER + INTRA:          -9.189
REMARK INTER:                  -9.136
REMARK INTRA:                  -0.054
REMARK UNBOUND:                 0.400
REMARK SMILES CN1C(N)=N[C@](C)(c2cc(NC(=O)c3ccc(F)cn3)ccc2F)CS1(=O)=O
REMARK SMILES IDX 8 1 9 2 10 3 21 4 22 5 23 6 24 7 6 8 25 9 5 10 26 11 3 12
REMARK SMILES IDX 27 13 2 14 28 15 4 16 7 17 1 18 11 21 12 22 13 23 14 25
REMARK SMILES IDX 20 26 15 27 19 28 16 29 17 30 18 31
REMARK H PARENT 4 19 4 20 11 24
ROOT
ATOM      1  C   UNL     1      18.723   7.016  23.782  1.00  0.00     0.018 A 
ATOM      2  C   UNL     1      18.548   6.415  22.536  1.00  0.00     0.035 A 
ATOM      3  C   UNL     1      17.485   6.718  21.716  1.00  0.00     0.042 A 
ATOM      4  C   UNL     1      16.522   7.634  22.121  1.00  0.00     0.029 A 
ATOM      5  C   UNL     1      16.682   8.242  23.354  1.00  0.00     0.042 A 
ATOM      6  C   UNL     1      17.771   7.952  24.152  1.00  0.00     0.129 A 
ATOM      7  F   UNL     1      17.920   8.585  25.344  1.00  0.00    -0.207 F 
ENDROOT
BRANCH   1   8
ATOM      8  C   UNL     1      19.911   6.662  24.664  1.00  0.00     0.105 C 
ATOM      9  C   UNL     1      20.511   7.822  25.426  1.00  0.00     0.195 C 
ATOM     10  N   UNL     1      20.954   5.955  23.923  1.00  0.00    -0.240 NA
ATOM     11  S   UNL     1      21.187   9.024  24.309  1.00  0.00     0.239 S 
ATOM     12  C   UNL     1      21.820   6.588  23.194  1.00  0.00     0.205 C 
ATOM     13  O   UNL     1      22.259   9.695  25.022  1.00  0.00    -0.206 OA
ATOM     14  N   UNL     1      21.920   7.996  23.137  1.00  0.00    -0.243 N 
ATOM     15  O   UNL     1      20.162   9.700  23.577  1.00  0.00    -0.206 OA
ATOM     16  N   UNL     1      22.746   5.935  22.426  1.00  0.00    -0.369 N 
ATOM     17  C   UNL     1      19.465   5.627  25.700  1.00  0.00     0.044 C 
ATOM     18  C   UNL     1      22.826   8.702  22.210  1.00  0.00     0.167 C 
ATOM     19  H   UNL     1      22.757   4.951  22.400  1.00  0.00     0.159 HD
ATOM     20  H   UNL     1      23.401   6.449  21.899  1.00  0.00     0.159 HD
ENDBRANCH   1   8
BRANCH   3  21
ATOM     21  N   UNL     1      17.425   6.041  20.491  1.00  0.00    -0.321 N 
ATOM     22  C   UNL     1      16.875   4.800  20.223  1.00  0.00     0.274 C 
ATOM     23  O   UNL     1      16.456   4.019  21.067  1.00  0.00    -0.267 OA
ATOM     24  H   UNL     1      17.824   6.509  19.722  1.00  0.00     0.170 HD
BRANCH  22  25
ATOM     25  C   UNL     1      16.777   4.447  18.786  1.00  0.00     0.128 A 
ATOM     26  N   UNL     1      17.806   3.767  18.271  1.00  0.00    -0.248 NA
ATOM     27  C   UNL     1      15.657   4.813  18.060  1.00  0.00     0.037 A 
ATOM     28  C   UNL     1      17.742   3.440  16.970  1.00  0.00     0.151 A 
ATOM     29  C   UNL     1      15.617   4.457  16.723  1.00  0.00     0.043 A 
ATOM     30  C   UNL     1      16.674   3.764  16.164  1.00  0.00     0.141 A 
ATOM     31  F   UNL     1      16.675   3.389  14.874  1.00  0.00    -0.205 F 
ENDBRANCH  22  25
ENDBRANCH   3  21
TORSDOF 3
ENDMDL
MODEL 15
REMARK VINA RESULT:    -8.144      9.854     12.102
REMARK INTER + INTRA:          -9.171
REMARK INTER:                  -8.786
REMARK INTRA:                  -0.386
REMARK UNBOUND:                 0.400
REMARK SMILES CN1C(N)=N[C@](C)(c2cc(NC(=O)c3ccc(F)cn3)ccc2F)CS1(=O)=O
REMARK SMILES IDX 8 1 9 2 10 3 21 4 22 5 23 6 24 7 6 8 25 9 5 10 26 11 3 12
REMARK SMILES IDX 27 13 2 14 28 15 4 16 7 17 1 18 11 21 12 22 13 23 14 25
REMARK SMILES IDX 20 26 15 27 19 28 16 29 17 30 18 31
REMARK H PARENT 4 19 4 20 11 24
ROOT
ATOM      1  C   UNL     1      25.633  13.232  19.919  1.00  0.00     0.018 A 
ATOM      2  C   UNL     1      24.875  12.356  20.695  1.00  0.00     0.035 A 
ATOM      3  C   UNL     1      23.798  11.666  20.187  1.00  0.00     0.042 A 
ATOM      4  C   UNL     1      23.411  11.840  18.864  1.00  0.00     0.029 A 
ATOM      5  C   UNL     1      24.155  12.703  18.078  1.00  0.00     0.042 A 
ATOM      6  C   UNL     1      25.252  13.364  18.592  1.00  0.00     0.129 A 
ATOM      7  F   UNL     1      25.983  14.182  17.792  1.00  0.00    -0.207 F 
ENDROOT
BRANCH   1   8
ATOM      8  C   UNL     1      26.820  13.978  20.509  1.00  0.00     0.105 C 
ATOM      9  C   UNL     1      28.147  13.704  19.837  1.00  0.00     0.195 C 
ATOM     10  N   UNL     1      26.935  13.771  21.952  1.00  0.00    -0.240 NA
ATOM     11  S   UNL     1      28.609  12.001  20.032  1.00  0.00     0.239 S 
ATOM     12  C   UNL     1      27.493  12.710  22.446  1.00  0.00     0.205 C 
ATOM     13  O   UNL     1      30.059  11.958  19.990  1.00  0.00    -0.206 OA
ATOM     14  N   UNL     1      28.138  11.725  21.665  1.00  0.00    -0.243 N 
ATOM     15  O   UNL     1      27.757  11.134  19.279  1.00  0.00    -0.206 OA
ATOM     16  N   UNL     1      27.529  12.462  23.792  1.00  0.00    -0.369 N 
ATOM     17  C   UNL     1      26.562  15.483  20.397  1.00  0.00     0.044 C 
ATOM     18  C   UNL     1      28.659  10.464  22.229  1.00  0.00     0.167 C 
ATOM     19  H   UNL     1      27.107  13.092  24.420  1.00  0.00     0.159 HD
ATOM     20  H   UNL     1      27.978  11.655  24.133  1.00  0.00     0.159 HD
ENDBRANCH   1   8
BRANCH   3  21
ATOM     21  N   UNL     1      23.119  10.820  21.074  1.00  0.00    -0.321 N 
ATOM     22  C   UNL     1      23.462   9.539  21.468  1.00  0.00     0.274 C 
ATOM     23  O   UNL     1      24.373   8.875  20.991  1.00  0.00    -0.267 OA
ATOM     24  H   UNL     1      22.293  11.184  21.467  1.00  0.00     0.170 HD
BRANCH  22  25
ATOM     25  C   UNL     1      22.656   8.983  22.582  1.00  0.00     0.128 A 
ATOM     26  N   UNL     1      22.295   9.843  23.540  1.00  0.00    -0.248 NA
ATOM     27  C   UNL     1      22.311   7.642  22.583  1.00  0.00     0.037 A 
ATOM     28  C   UNL     1      21.568   9.361  24.562  1.00  0.00     0.151 A 
ATOM     29  C   UNL     1      21.557   7.177  23.646  1.00  0.00     0.043 A 
ATOM     30  C   UNL     1      21.181   8.043  24.654  1.00  0.00     0.141 A 
ATOM     31  F   UNL     1      20.441   7.639  25.701  1.00  0.00    -0.205 F 
ENDBRANCH  22  25
ENDBRANCH   3  21
TORSDOF 3
ENDMDL
MODEL 16
REMARK VINA RESULT:    -8.128      9.834     12.100
REMARK INTER + INTRA:          -9.153
REMARK INTER:                  -9.608
REMARK INTRA:                   0.455
REMARK UNBOUND:                 0.400
REMARK SMILES CN1C(N)=N[C@](C)(c2cc(NC(=O)c3ccc(F)cn3)ccc2F)CS1(=O)=O
REMARK SMILES IDX 8 1 9 2 10 3 21 4 22 5 23 6 24 7 6 8 25 9 5 10 26 11 3 12
REMARK SMILES IDX 27 13 2 14 28 15 4 16 7 17 1 18 11 21 12 22 13 23 14 25
REMARK SMILES IDX 20 26 15 27 19 28 16 29 17 30 18 31
REMARK H PARENT 4 19 4 20 11 24
ROOT
ATOM      1  C   UNL     1      21.273  12.421  26.409  1.00  0.00     0.018 A 
ATOM      2  C   UNL     1      21.621  12.190  25.078  1.00  0.00     0.035 A 
ATOM      3  C   UNL     1      22.784  12.677  24.527  1.00  0.00     0.042 A 
ATOM      4  C   UNL     1      23.655  13.447  25.287  1.00  0.00     0.029 A 
ATOM      5  C   UNL     1      23.327  13.683  26.611  1.00  0.00     0.042 A 
ATOM      6  C   UNL     1      22.172  13.162  27.160  1.00  0.00     0.129 A 
ATOM      7  F   UNL     1      21.888  13.383  28.469  1.00  0.00    -0.207 F 
ENDROOT
BRANCH   1   8
ATOM      8  C   UNL     1      19.981  11.867  26.990  1.00  0.00     0.105 C 
ATOM      9  C   UNL     1      18.855  11.691  25.996  1.00  0.00     0.195 C 
ATOM     10  N   UNL     1      19.520  12.642  28.140  1.00  0.00    -0.240 NA
ATOM     11  S   UNL     1      18.354  13.260  25.333  1.00  0.00     0.239 S 
ATOM     12  C   UNL     1      18.855  13.747  27.995  1.00  0.00     0.205 C 
ATOM     13  O   UNL     1      16.956  13.126  24.964  1.00  0.00    -0.206 OA
ATOM     14  N   UNL     1      18.415  14.241  26.747  1.00  0.00    -0.243 N 
ATOM     15  O   UNL     1      19.359  13.820  24.485  1.00  0.00    -0.206 OA
ATOM     16  N   UNL     1      18.494  14.528  29.060  1.00  0.00    -0.369 N 
ATOM     17  C   UNL     1      20.263  10.489  27.596  1.00  0.00     0.044 C 
ATOM     18  C   UNL     1      17.769  15.558  26.586  1.00  0.00     0.167 C 
ATOM     19  H   UNL     1      18.755  14.266  29.973  1.00  0.00     0.159 HD
ATOM     20  H   UNL     1      17.974  15.350  28.914  1.00  0.00     0.159 HD
ENDBRANCH   1   8
BRANCH   3  21
ATOM     21  N   UNL     1      23.013  12.376  23.178  1.00  0.00    -0.321 N 
ATOM     22  C   UNL     1      23.367  13.238  22.155  1.00  0.00     0.274 C 
ATOM     23  O   UNL     1      23.413  14.458  22.247  1.00  0.00    -0.267 OA
ATOM     24  H   UNL     1      22.909  11.430  22.926  1.00  0.00     0.170 HD
BRANCH  22  25
ATOM     25  C   UNL     1      23.745  12.585  20.879  1.00  0.00     0.128 A 
ATOM     26  N   UNL     1      24.391  13.348  19.991  1.00  0.00    -0.248 NA
ATOM     27  C   UNL     1      23.435  11.253  20.666  1.00  0.00     0.037 A 
ATOM     28  C   UNL     1      24.740  12.779  18.825  1.00  0.00     0.151 A 
ATOM     29  C   UNL     1      23.813  10.694  19.458  1.00  0.00     0.043 A 
ATOM     30  C   UNL     1      24.471  11.464  18.519  1.00  0.00     0.141 A 
ATOM     31  F   UNL     1      24.865  10.963  17.336  1.00  0.00    -0.205 F 
ENDBRANCH  22  25
ENDBRANCH   3  21
TORSDOF 3
ENDMDL
MODEL 17
REMARK VINA RESULT:    -8.044     10.237     12.481
REMARK INTER + INTRA:          -9.054
REMARK INTER:                  -8.951
REMARK INTRA:                  -0.104
REMARK UNBOUND:                 0.400
REMARK SMILES CN1C(N)=N[C@](C)(c2cc(NC(=O)c3ccc(F)cn3)ccc2F)CS1(=O)=O
REMARK SMILES IDX 8 1 9 2 10 3 21 4 22 5 23 6 24 7 6 8 25 9 5 10 26 11 3 12
REMARK SMILES IDX 27 13 2 14 28 15 4 16 7 17 1 18 11 21 12 22 13 23 14 25
REMARK SMILES IDX 20 26 15 27 19 28 16 29 17 30 18 31
REMARK H PARENT 4 19 4 20 11 24
ROOT
ATOM      1  C   UNL     1      25.930  13.104  19.513  1.00  0.00     0.018 A 
ATOM      2  C   UNL     1      25.010  12.525  20.385  1.00  0.00     0.035 A 
ATOM      3  C   UNL     1      24.400  11.319  20.118  1.00  0.00     0.042 A 
ATOM      4  C   UNL     1      24.673  10.640  18.937  1.00  0.00     0.029 A 
ATOM      5  C   UNL     1      25.587  11.199  18.061  1.00  0.00     0.042 A 
ATOM      6  C   UNL     1      26.214  12.393  18.357  1.00  0.00     0.129 A 
ATOM      7  F   UNL     1      27.129  12.905  17.495  1.00  0.00    -0.207 F 
ENDROOT
BRANCH   1   8
ATOM      8  C   UNL     1      26.589  14.436  19.838  1.00  0.00     0.105 C 
ATOM      9  C   UNL     1      28.085  14.374  20.057  1.00  0.00     0.195 C 
ATOM     10  N   UNL     1      25.944  15.106  20.965  1.00  0.00    -0.240 NA
ATOM     11  S   UNL     1      28.470  13.381  21.477  1.00  0.00     0.239 S 
ATOM     12  C   UNL     1      26.219  14.792  22.194  1.00  0.00     0.205 C 
ATOM     13  O   UNL     1      29.728  13.880  22.002  1.00  0.00    -0.206 OA
ATOM     14  N   UNL     1      27.231  13.878  22.563  1.00  0.00    -0.243 N 
ATOM     15  O   UNL     1      28.188  11.998  21.245  1.00  0.00    -0.206 OA
ATOM     16  N   UNL     1      25.559  15.349  23.256  1.00  0.00    -0.369 N 
ATOM     17  C   UNL     1      26.345  15.404  18.677  1.00  0.00     0.044 C 
ATOM     18  C   UNL     1      27.448  13.438  23.955  1.00  0.00     0.167 C 
ATOM     19  H   UNL     1      24.836  16.000  23.100  1.00  0.00     0.159 HD
ATOM     20  H   UNL     1      25.807  15.101  24.176  1.00  0.00     0.159 HD
ENDBRANCH   1   8
BRANCH   3  21
ATOM     21  N   UNL     1      23.493  10.849  21.076  1.00  0.00    -0.321 N 
ATOM     22  C   UNL     1      23.448   9.603  21.675  1.00  0.00     0.274 C 
ATOM     23  O   UNL     1      24.140   8.644  21.358  1.00  0.00    -0.267 OA
ATOM     24  H   UNL     1      22.799  11.487  21.359  1.00  0.00     0.170 HD
BRANCH  22  25
ATOM     25  C   UNL     1      22.498   9.478  22.807  1.00  0.00     0.128 A 
ATOM     26  N   UNL     1      21.915   8.285  22.963  1.00  0.00    -0.248 NA
ATOM     27  C   UNL     1      22.265  10.561  23.636  1.00  0.00     0.037 A 
ATOM     28  C   UNL     1      21.047   8.149  23.979  1.00  0.00     0.151 A 
ATOM     29  C   UNL     1      21.370  10.388  24.678  1.00  0.00     0.043 A 
ATOM     30  C   UNL     1      20.746   9.168  24.853  1.00  0.00     0.141 A 
ATOM     31  F   UNL     1      19.877   8.951  25.855  1.00  0.00    -0.205 F 
ENDBRANCH  22  25
ENDBRANCH   3  21
TORSDOF 3
ENDMDL
MODEL 18
REMARK VINA RESULT:    -8.018     10.985     13.060
REMARK INTER + INTRA:          -9.024
REMARK INTER:                  -9.370
REMARK INTRA:                   0.345
REMARK UNBOUND:                 0.400
REMARK SMILES CN1C(N)=N[C@](C)(c2cc(NC(=O)c3ccc(F)cn3)ccc2F)CS1(=O)=O
REMARK SMILES IDX 8 1 9 2 10 3 21 4 22 5 23 6 24 7 6 8 25 9 5 10 26 11 3 12
REMARK SMILES IDX 27 13 2 14 28 15 4 16 7 17 1 18 11 21 12 22 13 23 14 25
REMARK SMILES IDX 20 26 15 27 19 28 16 29 17 30 18 31
REMARK H PARENT 4 19 4 20 11 24
ROOT
ATOM      1  C   UNL     1      25.457  12.402  19.455  1.00  0.00     0.018 A 
ATOM      2  C   UNL     1      26.092  11.226  19.061  1.00  0.00     0.035 A 
ATOM      3  C   UNL     1      25.413  10.039  18.903  1.00  0.00     0.042 A 
ATOM      4  C   UNL     1      24.049   9.970  19.159  1.00  0.00     0.029 A 
ATOM      5  C   UNL     1      23.401  11.129  19.548  1.00  0.00     0.042 A 
ATOM      6  C   UNL     1      24.090  12.320  19.671  1.00  0.00     0.129 A 
ATOM      7  F   UNL     1      23.425  13.449  20.025  1.00  0.00    -0.207 F 
ENDROOT
BRANCH   1   8
ATOM      8  C   UNL     1      26.235  13.699  19.617  1.00  0.00     0.105 C 
ATOM      9  C   UNL     1      27.708  13.529  19.912  1.00  0.00     0.195 C 
ATOM     10  N   UNL     1      25.623  14.586  20.605  1.00  0.00    -0.240 NA
ATOM     11  S   UNL     1      27.946  12.723  21.475  1.00  0.00     0.239 S 
ATOM     12  C   UNL     1      25.826  14.431  21.877  1.00  0.00     0.205 C 
ATOM     13  O   UNL     1      29.230  13.173  21.982  1.00  0.00    -0.206 OA
ATOM     14  N   UNL     1      26.728  13.489  22.420  1.00  0.00    -0.243 N 
ATOM     15  O   UNL     1      27.534  11.355  21.431  1.00  0.00    -0.206 OA
ATOM     16  N   UNL     1      25.191  15.198  22.817  1.00  0.00    -0.369 N 
ATOM     17  C   UNL     1      26.127  14.505  18.319  1.00  0.00     0.044 C 
ATOM     18  C   UNL     1      26.855  13.240  23.870  1.00  0.00     0.167 C 
ATOM     19  H   UNL     1      24.542  15.883  22.536  1.00  0.00     0.159 HD
ATOM     20  H   UNL     1      25.383  15.064  23.774  1.00  0.00     0.159 HD
ENDBRANCH   1   8
BRANCH   3  21
ATOM     21  N   UNL     1      26.171   8.930  18.506  1.00  0.00    -0.321 N 
ATOM     22  C   UNL     1      26.557   7.840  19.264  1.00  0.00     0.274 C 
ATOM     23  O   UNL     1      26.400   7.731  20.473  1.00  0.00    -0.267 OA
ATOM     24  H   UNL     1      26.465   8.926  17.566  1.00  0.00     0.170 HD
BRANCH  22  25
ATOM     25  C   UNL     1      27.175   6.726  18.504  1.00  0.00     0.128 A 
ATOM     26  N   UNL     1      26.604   6.419  17.334  1.00  0.00    -0.248 NA
ATOM     27  C   UNL     1      28.286   6.075  19.011  1.00  0.00     0.037 A 
ATOM     28  C   UNL     1      27.144   5.411  16.629  1.00  0.00     0.151 A 
ATOM     29  C   UNL     1      28.822   5.045  18.259  1.00  0.00     0.043 A 
ATOM     30  C   UNL     1      28.244   4.701  17.052  1.00  0.00     0.141 A 
ATOM     31  F   UNL     1      28.735   3.714  16.284  1.00  0.00    -0.205 F 
ENDBRANCH  22  25
ENDBRANCH   3  21
TORSDOF 3
ENDMDL
MODEL 19
REMARK VINA RESULT:    -8.001     10.407     12.565
REMARK INTER + INTRA:          -9.004
REMARK INTER:                  -8.579
REMARK INTRA:                  -0.425
REMARK UNBOUND:                 0.400
REMARK SMILES CN1C(N)=N[C@](C)(c2cc(NC(=O)c3ccc(F)cn3)ccc2F)CS1(=O)=O
REMARK SMILES IDX 8 1 9 2 10 3 21 4 22 5 23 6 24 7 6 8 25 9 5 10 26 11 3 12
REMARK SMILES IDX 27 13 2 14 28 15 4 16 7 17 1 18 11 21 12 22 13 23 14 25
REMARK SMILES IDX 20 26 15 27 19 28 16 29 17 30 18 31
REMARK H PARENT 4 19 4 20 11 24
ROOT
ATOM      1  C   UNL     1      27.297  12.809  21.521  1.00  0.00     0.018 A 
ATOM      2  C   UNL     1      26.060  12.536  22.102  1.00  0.00     0.035 A 
ATOM      3  C   UNL     1      25.663  13.105  23.291  1.00  0.00     0.042 A 
ATOM      4  C   UNL     1      26.510  13.970  23.973  1.00  0.00     0.029 A 
ATOM      5  C   UNL     1      27.740  14.256  23.409  1.00  0.00     0.042 A 
ATOM      6  C   UNL     1      28.112  13.702  22.200  1.00  0.00     0.129 A 
ATOM      7  F   UNL     1      29.313  14.021  21.653  1.00  0.00    -0.207 F 
ENDROOT
BRANCH   1   8
ATOM      8  C   UNL     1      27.705  12.165  20.205  1.00  0.00     0.105 C 
ATOM      9  C   UNL     1      28.028  13.136  19.090  1.00  0.00     0.195 C 
ATOM     10  N   UNL     1      26.725  11.183  19.747  1.00  0.00    -0.240 NA
ATOM     11  S   UNL     1      26.592  14.080  18.645  1.00  0.00     0.239 S 
ATOM     12  C   UNL     1      25.648  11.538  19.116  1.00  0.00     0.205 C 
ATOM     13  O   UNL     1      26.755  14.449  17.251  1.00  0.00    -0.206 OA
ATOM     14  N   UNL     1      25.375  12.863  18.711  1.00  0.00    -0.243 N 
ATOM     15  O   UNL     1      26.219  14.992  19.681  1.00  0.00    -0.206 OA
ATOM     16  N   UNL     1      24.679  10.638  18.760  1.00  0.00    -0.369 N 
ATOM     17  C   UNL     1      28.958  11.316  20.437  1.00  0.00     0.044 C 
ATOM     18  C   UNL     1      24.092  13.272  18.106  1.00  0.00     0.167 C 
ATOM     19  H   UNL     1      24.779   9.688  18.998  1.00  0.00     0.159 HD
ATOM     20  H   UNL     1      23.883  10.941  18.265  1.00  0.00     0.159 HD
ENDBRANCH   1   8
BRANCH   3  21
ATOM     21  N   UNL     1      24.396  12.745  23.768  1.00  0.00    -0.321 N 
ATOM     22  C   UNL     1      23.162  13.232  23.376  1.00  0.00     0.274 C 
ATOM     23  O   UNL     1      22.987  14.176  22.616  1.00  0.00    -0.267 OA
ATOM     24  H   UNL     1      24.383  12.056  24.472  1.00  0.00     0.170 HD
BRANCH  22  25
ATOM     25  C   UNL     1      21.991  12.500  23.917  1.00  0.00     0.128 A 
ATOM     26  N   UNL     1      20.904  13.232  24.178  1.00  0.00    -0.248 NA
ATOM     27  C   UNL     1      22.063  11.132  24.114  1.00  0.00     0.037 A 
ATOM     28  C   UNL     1      19.832  12.591  24.673  1.00  0.00     0.151 A 
ATOM     29  C   UNL     1      20.940  10.499  24.619  1.00  0.00     0.043 A 
ATOM     30  C   UNL     1      19.808  11.235  24.908  1.00  0.00     0.141 A 
ATOM     31  F   UNL     1      18.692  10.663  25.391  1.00  0.00    -0.205 F 
ENDBRANCH  22  25
ENDBRANCH   3  21
TORSDOF 3
ENDMDL
MODEL 20
REMARK VINA RESULT:    -7.995      9.738     12.036
REMARK INTER + INTRA:          -8.997
REMARK INTER:                  -9.303
REMARK INTRA:                   0.306
REMARK UNBOUND:                 0.400
REMARK SMILES CN1C(N)=N[C@](C)(c2cc(NC(=O)c3ccc(F)cn3)ccc2F)CS1(=O)=O
REMARK SMILES IDX 8 1 9 2 10 3 21 4 22 5 23 6 24 7 6 8 25 9 5 10 26 11 3 12
REMARK SMILES IDX 27 13 2 14 28 15 4 16 7 17 1 18 11 21 12 22 13 23 14 25
REMARK SMILES IDX 20 26 15 27 19 28 16 29 17 30 18 31
REMARK H PARENT 4 19 4 20 11 24
ROOT
ATOM      1  C   UNL     1      26.046  12.004  20.207  1.00  0.00     0.018 A 
ATOM      2  C   UNL     1      25.374  11.050  20.971  1.00  0.00     0.035 A 
ATOM      3  C   UNL     1      24.078  10.671  20.702  1.00  0.00     0.042 A 
ATOM      4  C   UNL     1      23.377  11.256  19.655  1.00  0.00     0.029 A 
ATOM      5  C   UNL     1      24.029  12.203  18.885  1.00  0.00     0.042 A 
ATOM      6  C   UNL     1      25.340  12.549  19.146  1.00  0.00     0.129 A 
ATOM      7  F   UNL     1      25.966  13.459  18.356  1.00  0.00    -0.207 F 
ENDROOT
BRANCH   1   8
ATOM      8  C   UNL     1      27.479  12.398  20.527  1.00  0.00     0.105 C 
ATOM      9  C   UNL     1      27.916  12.127  21.950  1.00  0.00     0.195 C 
ATOM     10  N   UNL     1      27.757  13.789  20.173  1.00  0.00    -0.240 NA
ATOM     11  S   UNL     1      26.969  13.100  23.093  1.00  0.00     0.239 S 
ATOM     12  C   UNL     1      27.426  14.771  20.954  1.00  0.00     0.205 C 
ATOM     13  O   UNL     1      27.813  13.310  24.256  1.00  0.00    -0.206 OA
ATOM     14  N   UNL     1      26.884  14.598  22.247  1.00  0.00    -0.243 N 
ATOM     15  O   UNL     1      25.609  12.665  23.155  1.00  0.00    -0.206 OA
ATOM     16  N   UNL     1      27.600  16.081  20.596  1.00  0.00    -0.369 N 
ATOM     17  C   UNL     1      28.423  11.616  19.611  1.00  0.00     0.044 C 
ATOM     18  C   UNL     1      26.398  15.720  23.073  1.00  0.00     0.167 C 
ATOM     19  H   UNL     1      27.972  16.304  19.712  1.00  0.00     0.159 HD
ATOM     20  H   UNL     1      27.354  16.800  21.222  1.00  0.00     0.159 HD
ENDBRANCH   1   8
BRANCH   3  21
ATOM     21  N   UNL     1      23.519   9.704  21.548  1.00  0.00    -0.321 N 
ATOM     22  C   UNL     1      22.817   9.897  22.724  1.00  0.00     0.274 C 
ATOM     23  O   UNL     1      22.680  10.972  23.294  1.00  0.00    -0.267 OA
ATOM     24  H   UNL     1      23.641   8.768  21.269  1.00  0.00     0.170 HD
BRANCH  22  25
ATOM     25  C   UNL     1      22.169   8.685  23.281  1.00  0.00     0.128 A 
ATOM     26  N   UNL     1      21.457   8.854  24.400  1.00  0.00    -0.248 NA
ATOM     27  C   UNL     1      22.312   7.468  22.637  1.00  0.00     0.037 A 
ATOM     28  C   UNL     1      20.864   7.769  24.925  1.00  0.00     0.151 A 
ATOM     29  C   UNL     1      21.684   6.370  23.199  1.00  0.00     0.043 A 
ATOM     30  C   UNL     1      20.953   6.516  24.362  1.00  0.00     0.141 A 
ATOM     31  F   UNL     1      20.319   5.481  24.939  1.00  0.00    -0.205 F 
ENDBRANCH  22  25
ENDBRANCH   3  21
TORSDOF 3
ENDMDL
