MODEL 1
REMARK VINA RESULT:    16.533      0.000      0.000
REMARK INTER + INTRA:          22.818
REMARK INTER:                  23.298
REMARK INTRA:                  -0.480
REMARK UNBOUND:                -0.480
REMARK SMILES Cc1ccc(NC(=O)c2ccc(CN3CCN(C)CC3)cc2)cc1Nc1nc(-c2cccnc2)cs1
REMARK SMILES IDX 6 1 7 2 8 3 5 5 2 6 3 7 24 8 4 9 23 10 1 11 25 12 26 14
REMARK SMILES IDX 27 15 36 16 28 17 35 18 29 19 30 20 34 21 31 22 33 23 32 24
REMARK SMILES IDX 9 25 10 26 22 27 11 28 21 29 12 30 13 31 14 32 15 33 20 34
REMARK SMILES IDX 16 35 19 36 17 37 18 38
REMARK H PARENT 6 4 25 13
ROOT
ATOM      1  N   UNL     1      30.553  27.659  45.889  1.00  0.00    -0.322 N 
ATOM      2  C   UNL     1      30.488  28.918  46.458  1.00  0.00     0.255 C 
ATOM      3  O   UNL     1      29.933  29.224  47.506  1.00  0.00    -0.269 OA
ATOM      4  H   UNL     1      31.175  27.550  45.099  1.00  0.00     0.170 HD
ENDROOT
BRANCH   1   5
ATOM      5  C   UNL     1      29.948  26.475  46.360  1.00  0.00     0.043 A 
ATOM      6  C   UNL     1      28.850  24.109  47.445  1.00  0.00    -0.027 A 
ATOM      7  C   UNL     1      30.035  24.649  47.961  1.00  0.00     0.008 A 
ATOM      8  C   UNL     1      28.227  24.744  46.354  1.00  0.00     0.045 A 
ATOM      9  C   UNL     1      30.576  25.820  47.425  1.00  0.00     0.026 A 
ATOM     10  C   UNL     1      28.782  25.924  45.826  1.00  0.00     0.052 A 
ATOM     11  C   UNL     1      28.294  22.848  48.047  1.00  0.00     0.046 C 
BRANCH   8  12
ATOM     12  N   UNL     1      27.054  24.204  45.775  1.00  0.00    -0.331 N 
ATOM     13  H   UNL     1      26.486  23.740  46.480  1.00  0.00     0.169 HD
BRANCH  12  14
ATOM     14  C   UNL     1      26.265  24.893  44.906  1.00  0.00     0.187 A 
ATOM     15  N   UNL     1      26.255  24.606  43.621  1.00  0.00    -0.220 NA
ATOM     16  S   UNL     1      25.226  26.204  45.338  1.00  0.00    -0.105 S 
ATOM     17  C   UNL     1      25.402  25.444  42.917  1.00  0.00     0.085 A 
ATOM     18  C   UNL     1      24.749  26.372  43.702  1.00  0.00     0.097 A 
BRANCH  17  19
ATOM     19  C   UNL     1      25.251  25.309  41.472  1.00  0.00     0.019 A 
ATOM     20  C   UNL     1      24.833  24.129  40.846  1.00  0.00     0.013 A 
ATOM     21  C   UNL     1      25.518  26.396  40.640  1.00  0.00     0.121 A 
ATOM     22  C   UNL     1      24.703  24.083  39.456  1.00  0.00     0.021 A 
ATOM     23  N   UNL     1      25.401  26.381  39.286  1.00  0.00    -0.264 NA
ATOM     24  C   UNL     1      24.995  25.223  38.728  1.00  0.00     0.111 A 
ENDBRANCH  17  19
ENDBRANCH  12  14
ENDBRANCH   8  12
ENDBRANCH   1   5
BRANCH   2  25
ATOM     25  C   UNL     1      31.229  29.973  45.712  1.00  0.00     0.040 A 
ATOM     26  C   UNL     1      31.911  29.613  44.546  1.00  0.00     0.014 A 
ATOM     27  C   UNL     1      31.266  31.300  46.159  1.00  0.00     0.014 A 
ATOM     28  C   UNL     1      32.598  30.581  43.812  1.00  0.00     0.006 A 
ATOM     29  C   UNL     1      31.959  32.266  45.424  1.00  0.00     0.006 A 
ATOM     30  C   UNL     1      32.621  31.919  44.236  1.00  0.00    -0.034 A 
BRANCH  30  31
ATOM     31  C   UNL     1      33.385  32.965  43.445  1.00  0.00     0.120 C 
BRANCH  31  32
ATOM     32  N   UNL     1      34.791  33.085  43.871  1.00  0.00    -0.297 NA
ATOM     33  C   UNL     1      35.649  33.434  42.724  1.00  0.00     0.100 C 
ATOM     34  C   UNL     1      35.284  31.829  44.487  1.00  0.00     0.100 C 
ATOM     35  C   UNL     1      35.821  32.324  41.651  1.00  0.00     0.099 C 
ATOM     36  C   UNL     1      36.074  30.866  43.558  1.00  0.00     0.099 C 
ATOM     37  N   UNL     1      35.631  30.952  42.161  1.00  0.00    -0.304 NA
ATOM     38  C   UNL     1      36.305  29.973  41.315  1.00  0.00     0.105 C 
ENDBRANCH  31  32
ENDBRANCH  30  31
ENDBRANCH   2  25
TORSDOF 7
ENDMDL
MODEL 2
REMARK VINA RESULT:    17.011      2.046      9.597
REMARK INTER + INTRA:          23.492
REMARK INTER:                  23.418
REMARK INTRA:                   0.074
REMARK UNBOUND:                -0.480
REMARK SMILES Cc1ccc(NC(=O)c2ccc(CN3CCN(C)CC3)cc2)cc1Nc1nc(-c2cccnc2)cs1
REMARK SMILES IDX 6 1 7 2 8 3 5 5 2 6 3 7 24 8 4 9 23 10 1 11 25 12 26 14
REMARK SMILES IDX 27 15 36 16 28 17 35 18 29 19 30 20 34 21 31 22 33 23 32 24
REMARK SMILES IDX 9 25 10 26 22 27 11 28 21 29 12 30 13 31 14 32 15 33 20 34
REMARK SMILES IDX 16 35 19 36 17 37 18 38
REMARK H PARENT 6 4 25 13
ROOT
ATOM      1  N   UNL     1      27.173  25.434  44.552  1.00  0.00    -0.322 N 
ATOM      2  C   UNL     1      25.849  25.827  44.636  1.00  0.00     0.255 C 
ATOM      3  O   UNL     1      25.265  26.241  45.630  1.00  0.00    -0.269 OA
ATOM      4  H   UNL     1      27.535  25.259  43.626  1.00  0.00     0.170 HD
ENDROOT
BRANCH   1   5
ATOM      5  C   UNL     1      28.114  25.371  45.601  1.00  0.00     0.043 A 
ATOM      6  C   UNL     1      29.996  25.064  47.685  1.00  0.00    -0.027 A 
ATOM      7  C   UNL     1      29.310  23.955  47.173  1.00  0.00     0.008 A 
ATOM      8  C   UNL     1      29.712  26.342  47.170  1.00  0.00     0.045 A 
ATOM      9  C   UNL     1      28.381  24.108  46.141  1.00  0.00     0.026 A 
ATOM     10  C   UNL     1      28.775  26.481  46.129  1.00  0.00     0.052 A 
ATOM     11  C   UNL     1      30.991  24.863  48.795  1.00  0.00     0.046 C 
BRANCH   8  12
ATOM     12  N   UNL     1      30.350  27.492  47.692  1.00  0.00    -0.331 N 
ATOM     13  H   UNL     1      31.192  27.236  48.202  1.00  0.00     0.169 HD
BRANCH  12  14
ATOM     14  C   UNL     1      30.558  28.625  46.968  1.00  0.00     0.187 A 
ATOM     15  N   UNL     1      31.622  28.760  46.203  1.00  0.00    -0.220 NA
ATOM     16  S   UNL     1      29.515  30.003  46.965  1.00  0.00    -0.105 S 
ATOM     17  C   UNL     1      31.646  29.997  45.577  1.00  0.00     0.085 A 
ATOM     18  C   UNL     1      30.565  30.802  45.873  1.00  0.00     0.097 A 
BRANCH  17  19
ATOM     19  C   UNL     1      32.749  30.362  44.692  1.00  0.00     0.019 A 
ATOM     20  C   UNL     1      33.403  31.598  44.744  1.00  0.00     0.013 A 
ATOM     21  C   UNL     1      33.208  29.452  43.741  1.00  0.00     0.121 A 
ATOM     22  C   UNL     1      34.458  31.867  43.869  1.00  0.00     0.021 A 
ATOM     23  N   UNL     1      34.230  29.686  42.877  1.00  0.00    -0.264 NA
ATOM     24  C   UNL     1      34.831  30.889  42.963  1.00  0.00     0.111 A 
ENDBRANCH  17  19
ENDBRANCH  12  14
ENDBRANCH   8  12
ENDBRANCH   1   5
BRANCH   2  25
ATOM     25  C   UNL     1      25.105  25.774  43.347  1.00  0.00     0.040 A 
ATOM     26  C   UNL     1      25.693  25.115  42.263  1.00  0.00     0.014 A 
ATOM     27  C   UNL     1      23.850  26.377  43.197  1.00  0.00     0.014 A 
ATOM     28  C   UNL     1      25.015  25.030  41.045  1.00  0.00     0.006 A 
ATOM     29  C   UNL     1      23.175  26.294  41.976  1.00  0.00     0.006 A 
ATOM     30  C   UNL     1      23.745  25.609  40.892  1.00  0.00    -0.034 A 
BRANCH  30  31
ATOM     31  C   UNL     1      23.019  25.530  39.562  1.00  0.00     0.120 C 
BRANCH  31  32
ATOM     32  N   UNL     1      23.796  26.117  38.454  1.00  0.00    -0.297 NA
ATOM     33  C   UNL     1      23.272  25.654  37.155  1.00  0.00     0.100 C 
ATOM     34  C   UNL     1      25.235  25.771  38.553  1.00  0.00     0.100 C 
ATOM     35  C   UNL     1      23.502  24.151  36.836  1.00  0.00     0.099 C 
ATOM     36  C   UNL     1      25.715  24.560  37.707  1.00  0.00     0.099 C 
ATOM     37  N   UNL     1      24.661  23.554  37.526  1.00  0.00    -0.304 NA
ATOM     38  C   UNL     1      25.151  22.375  36.820  1.00  0.00     0.105 C 
ENDBRANCH  31  32
ENDBRANCH  30  31
ENDBRANCH   2  25
TORSDOF 7
ENDMDL
MODEL 3
REMARK VINA RESULT:    17.059      2.219      9.856
REMARK INTER + INTRA:          23.560
REMARK INTER:                  24.629
REMARK INTRA:                  -1.069
REMARK UNBOUND:                -0.480
REMARK SMILES Cc1ccc(NC(=O)c2ccc(CN3CCN(C)CC3)cc2)cc1Nc1nc(-c2cccnc2)cs1
REMARK SMILES IDX 6 1 7 2 8 3 5 5 2 6 3 7 24 8 4 9 23 10 1 11 25 12 26 14
REMARK SMILES IDX 27 15 36 16 28 17 35 18 29 19 30 20 34 21 31 22 33 23 32 24
REMARK SMILES IDX 9 25 10 26 22 27 11 28 21 29 12 30 13 31 14 32 15 33 20 34
REMARK SMILES IDX 16 35 19 36 17 37 18 38
REMARK H PARENT 6 4 25 13
ROOT
ATOM      1  N   UNL     1      27.453  25.234  44.580  1.00  0.00    -0.322 N 
ATOM      2  C   UNL     1      26.141  25.670  44.617  1.00  0.00     0.255 C 
ATOM      3  O   UNL     1      25.557  26.169  45.572  1.00  0.00    -0.269 OA
ATOM      4  H   UNL     1      27.822  24.985  43.673  1.00  0.00     0.170 HD
ENDROOT
BRANCH   1   5
ATOM      5  C   UNL     1      28.379  25.217  45.644  1.00  0.00     0.043 A 
ATOM      6  C   UNL     1      30.237  25.000  47.761  1.00  0.00    -0.027 A 
ATOM      7  C   UNL     1      29.608  23.861  47.244  1.00  0.00     0.008 A 
ATOM      8  C   UNL     1      29.908  26.262  47.233  1.00  0.00     0.045 A 
ATOM      9  C   UNL     1      28.690  23.969  46.196  1.00  0.00     0.026 A 
ATOM     10  C   UNL     1      28.983  26.356  46.176  1.00  0.00     0.052 A 
ATOM     11  C   UNL     1      31.221  24.847  48.888  1.00  0.00     0.046 C 
BRANCH   8  12
ATOM     12  N   UNL     1      30.488  27.441  47.759  1.00  0.00    -0.331 N 
ATOM     13  H   UNL     1      31.354  27.229  48.249  1.00  0.00     0.169 HD
BRANCH  12  14
ATOM     14  C   UNL     1      30.614  28.595  47.047  1.00  0.00     0.187 A 
ATOM     15  N   UNL     1      31.682  28.830  46.315  1.00  0.00    -0.220 NA
ATOM     16  S   UNL     1      29.452  29.873  47.022  1.00  0.00    -0.105 S 
ATOM     17  C   UNL     1      31.613  30.070  45.696  1.00  0.00     0.085 A 
ATOM     18  C   UNL     1      30.456  30.772  45.965  1.00  0.00     0.097 A 
BRANCH  17  19
ATOM     19  C   UNL     1      32.703  30.540  44.846  1.00  0.00     0.019 A 
ATOM     20  C   UNL     1      33.251  31.823  44.933  1.00  0.00     0.013 A 
ATOM     21  C   UNL     1      33.258  29.687  43.892  1.00  0.00     0.121 A 
ATOM     22  C   UNL     1      34.302  32.194  44.089  1.00  0.00     0.021 A 
ATOM     23  N   UNL     1      34.279  30.019  43.059  1.00  0.00    -0.264 NA
ATOM     24  C   UNL     1      34.776  31.266  43.179  1.00  0.00     0.111 A 
ENDBRANCH  17  19
ENDBRANCH  12  14
ENDBRANCH   8  12
ENDBRANCH   1   5
BRANCH   2  25
ATOM     25  C   UNL     1      25.413  25.550  43.323  1.00  0.00     0.040 A 
ATOM     26  C   UNL     1      26.045  24.903  42.257  1.00  0.00     0.014 A 
ATOM     27  C   UNL     1      24.127  26.079  43.152  1.00  0.00     0.014 A 
ATOM     28  C   UNL     1      25.384  24.756  41.037  1.00  0.00     0.006 A 
ATOM     29  C   UNL     1      23.469  25.934  41.928  1.00  0.00     0.006 A 
ATOM     30  C   UNL     1      24.085  25.259  40.863  1.00  0.00    -0.034 A 
BRANCH  30  31
ATOM     31  C   UNL     1      23.375  25.113  39.529  1.00  0.00     0.120 C 
BRANCH  31  32
ATOM     32  N   UNL     1      24.301  25.176  38.382  1.00  0.00    -0.297 NA
ATOM     33  C   UNL     1      24.393  26.556  37.870  1.00  0.00     0.100 C 
ATOM     34  C   UNL     1      23.874  24.273  37.286  1.00  0.00     0.100 C 
ATOM     35  C   UNL     1      23.117  27.100  37.172  1.00  0.00     0.099 C 
ATOM     36  C   UNL     1      23.054  24.921  36.136  1.00  0.00     0.099 C 
ATOM     37  N   UNL     1      22.246  26.056  36.599  1.00  0.00    -0.304 NA
ATOM     38  C   UNL     1      21.402  26.592  35.537  1.00  0.00     0.105 C 
ENDBRANCH  31  32
ENDBRANCH  30  31
ENDBRANCH   2  25
TORSDOF 7
ENDMDL
MODEL 4
REMARK VINA RESULT:    17.352      5.641      7.520
REMARK INTER + INTRA:          23.973
REMARK INTER:                  24.666
REMARK INTRA:                  -0.693
REMARK UNBOUND:                -0.480
REMARK SMILES Cc1ccc(NC(=O)c2ccc(CN3CCN(C)CC3)cc2)cc1Nc1nc(-c2cccnc2)cs1
REMARK SMILES IDX 6 1 7 2 8 3 5 5 2 6 3 7 24 8 4 9 23 10 1 11 25 12 26 14
REMARK SMILES IDX 27 15 36 16 28 17 35 18 29 19 30 20 34 21 31 22 33 23 32 24
REMARK SMILES IDX 9 25 10 26 22 27 11 28 21 29 12 30 13 31 14 32 15 33 20 34
REMARK SMILES IDX 16 35 19 36 17 37 18 38
REMARK H PARENT 6 4 25 13
ROOT
ATOM      1  N   UNL     1      26.759  25.531  45.462  1.00  0.00    -0.322 N 
ATOM      2  C   UNL     1      27.575  24.437  45.239  1.00  0.00     0.255 C 
ATOM      3  O   UNL     1      27.530  23.666  44.288  1.00  0.00    -0.269 OA
ATOM      4  H   UNL     1      27.025  26.148  46.217  1.00  0.00     0.170 HD
ENDROOT
BRANCH   1   5
ATOM      5  C   UNL     1      25.668  25.958  44.677  1.00  0.00     0.043 A 
ATOM      6  C   UNL     1      23.381  26.812  43.255  1.00  0.00    -0.027 A 
ATOM      7  C   UNL     1      23.274  26.366  44.578  1.00  0.00     0.008 A 
ATOM      8  C   UNL     1      24.641  26.800  42.629  1.00  0.00     0.045 A 
ATOM      9  C   UNL     1      24.406  25.946  45.281  1.00  0.00     0.026 A 
ATOM     10  C   UNL     1      25.773  26.376  43.349  1.00  0.00     0.052 A 
ATOM     11  C   UNL     1      22.143  27.260  42.529  1.00  0.00     0.046 C 
BRANCH   8  12
ATOM     12  N   UNL     1      24.783  27.200  41.279  1.00  0.00    -0.331 N 
ATOM     13  H   UNL     1      25.537  27.876  41.181  1.00  0.00     0.169 HD
BRANCH  12  14
ATOM     14  C   UNL     1      24.790  26.325  40.237  1.00  0.00     0.187 A 
ATOM     15  N   UNL     1      23.910  26.418  39.262  1.00  0.00    -0.220 NA
ATOM     16  S   UNL     1      25.891  25.005  40.061  1.00  0.00    -0.105 S 
ATOM     17  C   UNL     1      24.083  25.414  38.321  1.00  0.00     0.085 A 
ATOM     18  C   UNL     1      25.129  24.556  38.595  1.00  0.00     0.097 A 
BRANCH  17  19
ATOM     19  C   UNL     1      23.202  25.321  37.161  1.00  0.00     0.019 A 
ATOM     20  C   UNL     1      23.034  24.152  36.411  1.00  0.00     0.013 A 
ATOM     21  C   UNL     1      22.466  26.434  36.756  1.00  0.00     0.121 A 
ATOM     22  C   UNL     1      22.162  24.142  35.319  1.00  0.00     0.021 A 
ATOM     23  N   UNL     1      21.612  26.454  35.699  1.00  0.00    -0.264 NA
ATOM     24  C   UNL     1      21.481  25.305  35.006  1.00  0.00     0.111 A 
ENDBRANCH  17  19
ENDBRANCH  12  14
ENDBRANCH   8  12
ENDBRANCH   1   5
BRANCH   2  25
ATOM     25  C   UNL     1      28.641  24.242  46.261  1.00  0.00     0.040 A 
ATOM     26  C   UNL     1      29.412  23.077  46.209  1.00  0.00     0.014 A 
ATOM     27  C   UNL     1      28.873  25.186  47.269  1.00  0.00     0.014 A 
ATOM     28  C   UNL     1      30.432  22.872  47.140  1.00  0.00     0.006 A 
ATOM     29  C   UNL     1      29.893  24.977  48.202  1.00  0.00     0.006 A 
ATOM     30  C   UNL     1      30.691  23.824  48.139  1.00  0.00    -0.034 A 
BRANCH  30  31
ATOM     31  C   UNL     1      31.789  23.590  49.160  1.00  0.00     0.120 C 
BRANCH  31  32
ATOM     32  N   UNL     1      33.060  24.236  48.786  1.00  0.00    -0.297 NA
ATOM     33  C   UNL     1      34.180  23.651  49.546  1.00  0.00     0.100 C 
ATOM     34  C   UNL     1      33.019  25.700  49.022  1.00  0.00     0.100 C 
ATOM     35  C   UNL     1      34.195  23.964  51.068  1.00  0.00     0.099 C 
ATOM     36  C   UNL     1      33.630  26.201  50.360  1.00  0.00     0.099 C 
ATOM     37  N   UNL     1      33.500  25.212  51.438  1.00  0.00    -0.304 NA
ATOM     38  C   UNL     1      33.982  25.731  52.713  1.00  0.00     0.105 C 
ENDBRANCH  31  32
ENDBRANCH  30  31
ENDBRANCH   2  25
TORSDOF 7
ENDMDL
MODEL 5
REMARK VINA RESULT:    18.387      6.124      9.307
REMARK INTER + INTRA:          25.431
REMARK INTER:                  24.131
REMARK INTRA:                   1.299
REMARK UNBOUND:                -0.480
REMARK SMILES Cc1ccc(NC(=O)c2ccc(CN3CCN(C)CC3)cc2)cc1Nc1nc(-c2cccnc2)cs1
REMARK SMILES IDX 6 1 7 2 8 3 5 5 2 6 3 7 24 8 4 9 23 10 1 11 25 12 26 14
REMARK SMILES IDX 27 15 36 16 28 17 35 18 29 19 30 20 34 21 31 22 33 23 32 24
REMARK SMILES IDX 9 25 10 26 22 27 11 28 21 29 12 30 13 31 14 32 15 33 20 34
REMARK SMILES IDX 16 35 19 36 17 37 18 38
REMARK H PARENT 6 4 25 13
ROOT
ATOM      1  N   UNL     1      25.908  24.729  41.490  1.00  0.00    -0.322 N 
ATOM      2  C   UNL     1      25.359  25.249  42.649  1.00  0.00     0.255 C 
ATOM      3  O   UNL     1      24.247  25.746  42.779  1.00  0.00    -0.269 OA
ATOM      4  H   UNL     1      26.777  24.223  41.588  1.00  0.00     0.170 HD
ENDROOT
BRANCH   1   5
ATOM      5  C   UNL     1      25.330  24.714  40.203  1.00  0.00     0.043 A 
ATOM      6  C   UNL     1      24.101  24.522  37.667  1.00  0.00    -0.027 A 
ATOM      7  C   UNL     1      24.137  23.418  38.529  1.00  0.00     0.008 A 
ATOM      8  C   UNL     1      24.715  25.723  38.068  1.00  0.00     0.045 A 
ATOM      9  C   UNL     1      24.744  23.515  39.783  1.00  0.00     0.026 A 
ATOM     10  C   UNL     1      25.321  25.807  39.335  1.00  0.00     0.052 A 
ATOM     11  C   UNL     1      23.439  24.383  36.324  1.00  0.00     0.046 C 
BRANCH   8  12
ATOM     12  N   UNL     1      24.740  26.846  37.207  1.00  0.00    -0.331 N 
ATOM     13  H   UNL     1      25.376  26.689  36.429  1.00  0.00     0.169 HD
BRANCH  12  14
ATOM     14  C   UNL     1      23.617  27.488  36.783  1.00  0.00     0.187 A 
ATOM     15  N   UNL     1      23.588  28.798  36.652  1.00  0.00    -0.220 NA
ATOM     16  S   UNL     1      22.121  26.713  36.397  1.00  0.00    -0.105 S 
ATOM     17  C   UNL     1      22.343  29.242  36.233  1.00  0.00     0.085 A 
ATOM     18  C   UNL     1      21.421  28.234  36.035  1.00  0.00     0.097 A 
BRANCH  17  19
ATOM     19  C   UNL     1      22.086  30.665  36.038  1.00  0.00     0.019 A 
ATOM     20  C   UNL     1      20.832  31.256  36.224  1.00  0.00     0.013 A 
ATOM     21  C   UNL     1      23.126  31.513  35.657  1.00  0.00     0.121 A 
ATOM     22  C   UNL     1      20.671  32.630  36.027  1.00  0.00     0.021 A 
ATOM     23  N   UNL     1      22.999  32.851  35.457  1.00  0.00    -0.264 NA
ATOM     24  C   UNL     1      21.773  33.377  35.648  1.00  0.00     0.111 A 
ENDBRANCH  17  19
ENDBRANCH  12  14
ENDBRANCH   8  12
ENDBRANCH   1   5
BRANCH   2  25
ATOM     25  C   UNL     1      26.226  25.123  43.854  1.00  0.00     0.040 A 
ATOM     26  C   UNL     1      27.165  24.088  43.896  1.00  0.00     0.014 A 
ATOM     27  C   UNL     1      26.109  26.002  44.938  1.00  0.00     0.014 A 
ATOM     28  C   UNL     1      28.007  23.953  45.002  1.00  0.00     0.006 A 
ATOM     29  C   UNL     1      26.951  25.862  46.045  1.00  0.00     0.006 A 
ATOM     30  C   UNL     1      27.916  24.844  46.083  1.00  0.00    -0.034 A 
BRANCH  30  31
ATOM     31  C   UNL     1      28.820  24.683  47.291  1.00  0.00     0.120 C 
BRANCH  31  32
ATOM     32  N   UNL     1      29.574  23.416  47.273  1.00  0.00    -0.297 NA
ATOM     33  C   UNL     1      29.859  22.966  48.647  1.00  0.00     0.100 C 
ATOM     34  C   UNL     1      30.848  23.549  46.526  1.00  0.00     0.100 C 
ATOM     35  C   UNL     1      30.875  23.833  49.441  1.00  0.00     0.099 C 
ATOM     36  C   UNL     1      32.121  23.821  47.374  1.00  0.00     0.099 C 
ATOM     37  N   UNL     1      31.826  24.580  48.595  1.00  0.00    -0.304 NA
ATOM     38  C   UNL     1      33.039  24.919  49.332  1.00  0.00     0.105 C 
ENDBRANCH  31  32
ENDBRANCH  30  31
ENDBRANCH   2  25
TORSDOF 7
ENDMDL
MODEL 6
REMARK VINA RESULT:    19.002      5.385      7.475
REMARK INTER + INTRA:          26.297
REMARK INTER:                  25.692
REMARK INTRA:                   0.605
REMARK UNBOUND:                -0.480
REMARK SMILES Cc1ccc(NC(=O)c2ccc(CN3CCN(C)CC3)cc2)cc1Nc1nc(-c2cccnc2)cs1
REMARK SMILES IDX 6 1 7 2 8 3 5 5 2 6 3 7 24 8 4 9 23 10 1 11 25 12 26 14
REMARK SMILES IDX 27 15 36 16 28 17 35 18 29 19 30 20 34 21 31 22 33 23 32 24
REMARK SMILES IDX 9 25 10 26 22 27 11 28 21 29 12 30 13 31 14 32 15 33 20 34
REMARK SMILES IDX 16 35 19 36 17 37 18 38
REMARK H PARENT 6 4 25 13
ROOT
ATOM      1  N   UNL     1      26.590  25.191  44.598  1.00  0.00    -0.322 N 
ATOM      2  C   UNL     1      26.812  25.537  45.919  1.00  0.00     0.255 C 
ATOM      3  O   UNL     1      26.044  26.134  46.662  1.00  0.00    -0.269 OA
ATOM      4  H   UNL     1      27.266  24.571  44.172  1.00  0.00     0.170 HD
ENDROOT
BRANCH   1   5
ATOM      5  C   UNL     1      25.461  25.500  43.811  1.00  0.00     0.043 A 
ATOM      6  C   UNL     1      23.171  26.262  42.343  1.00  0.00    -0.027 A 
ATOM      7  C   UNL     1      23.463  26.864  43.574  1.00  0.00     0.008 A 
ATOM      8  C   UNL     1      24.017  25.248  41.860  1.00  0.00     0.045 A 
ATOM      9  C   UNL     1      24.598  26.487  44.298  1.00  0.00     0.026 A 
ATOM     10  C   UNL     1      25.157  24.880  42.598  1.00  0.00     0.052 A 
ATOM     11  C   UNL     1      21.943  26.693  41.590  1.00  0.00     0.046 C 
BRANCH   8  12
ATOM     12  N   UNL     1      23.730  24.584  40.642  1.00  0.00    -0.331 N 
ATOM     13  H   UNL     1      22.794  24.188  40.661  1.00  0.00     0.169 HD
BRANCH  12  14
ATOM     14  C   UNL     1      23.998  25.118  39.419  1.00  0.00     0.187 A 
ATOM     15  N   UNL     1      23.163  25.957  38.844  1.00  0.00    -0.220 NA
ATOM     16  S   UNL     1      25.401  24.768  38.474  1.00  0.00    -0.105 S 
ATOM     17  C   UNL     1      23.619  26.357  37.596  1.00  0.00     0.085 A 
ATOM     18  C   UNL     1      24.835  25.810  37.238  1.00  0.00     0.097 A 
BRANCH  17  19
ATOM     19  C   UNL     1      22.837  27.276  36.777  1.00  0.00     0.019 A 
ATOM     20  C   UNL     1      21.704  26.892  36.052  1.00  0.00     0.013 A 
ATOM     21  C   UNL     1      23.202  28.620  36.697  1.00  0.00     0.121 A 
ATOM     22  C   UNL     1      21.002  27.836  35.299  1.00  0.00     0.021 A 
ATOM     23  N   UNL     1      22.541  29.560  35.972  1.00  0.00    -0.264 NA
ATOM     24  C   UNL     1      21.455  29.144  35.291  1.00  0.00     0.111 A 
ENDBRANCH  17  19
ENDBRANCH  12  14
ENDBRANCH   8  12
ENDBRANCH   1   5
BRANCH   2  25
ATOM     25  C   UNL     1      28.115  25.070  46.470  1.00  0.00     0.040 A 
ATOM     26  C   UNL     1      28.495  23.742  46.254  1.00  0.00     0.014 A 
ATOM     27  C   UNL     1      28.950  25.923  47.203  1.00  0.00     0.014 A 
ATOM     28  C   UNL     1      29.718  23.278  46.740  1.00  0.00     0.006 A 
ATOM     29  C   UNL     1      30.172  25.453  47.692  1.00  0.00     0.006 A 
ATOM     30  C   UNL     1      30.574  24.130  47.454  1.00  0.00    -0.034 A 
BRANCH  30  31
ATOM     31  C   UNL     1      31.896  23.616  47.997  1.00  0.00     0.120 C 
BRANCH  31  32
ATOM     32  N   UNL     1      32.155  24.063  49.378  1.00  0.00    -0.297 NA
ATOM     33  C   UNL     1      32.589  25.472  49.391  1.00  0.00     0.100 C 
ATOM     34  C   UNL     1      33.187  23.226  50.038  1.00  0.00     0.100 C 
ATOM     35  C   UNL     1      33.993  25.748  48.786  1.00  0.00     0.099 C 
ATOM     36  C   UNL     1      34.639  23.777  50.020  1.00  0.00     0.099 C 
ATOM     37  N   UNL     1      34.911  24.594  48.831  1.00  0.00    -0.304 NA
ATOM     38  C   UNL     1      36.305  25.021  48.771  1.00  0.00     0.105 C 
ENDBRANCH  31  32
ENDBRANCH  30  31
ENDBRANCH   2  25
TORSDOF 7
ENDMDL
MODEL 7
REMARK VINA RESULT:    19.214      5.967     11.901
REMARK INTER + INTRA:          26.596
REMARK INTER:                  26.117
REMARK INTRA:                   0.480
REMARK UNBOUND:                -0.480
REMARK SMILES Cc1ccc(NC(=O)c2ccc(CN3CCN(C)CC3)cc2)cc1Nc1nc(-c2cccnc2)cs1
REMARK SMILES IDX 6 1 7 2 8 3 5 5 2 6 3 7 24 8 4 9 23 10 1 11 25 12 26 14
REMARK SMILES IDX 27 15 36 16 28 17 35 18 29 19 30 20 34 21 31 22 33 23 32 24
REMARK SMILES IDX 9 25 10 26 22 27 11 28 21 29 12 30 13 31 14 32 15 33 20 34
REMARK SMILES IDX 16 35 19 36 17 37 18 38
REMARK H PARENT 6 4 25 13
ROOT
ATOM      1  N   UNL     1      25.126  24.805  40.954  1.00  0.00    -0.322 N 
ATOM      2  C   UNL     1      25.181  25.343  39.680  1.00  0.00     0.255 C 
ATOM      3  O   UNL     1      25.391  26.512  39.382  1.00  0.00    -0.269 OA
ATOM      4  H   UNL     1      25.090  23.798  41.020  1.00  0.00     0.170 HD
ENDROOT
BRANCH   1   5
ATOM      5  C   UNL     1      25.243  25.496  42.179  1.00  0.00     0.043 A 
ATOM      6  C   UNL     1      25.380  27.013  44.557  1.00  0.00    -0.027 A 
ATOM      7  C   UNL     1      24.899  27.584  43.372  1.00  0.00     0.008 A 
ATOM      8  C   UNL     1      25.826  25.679  44.541  1.00  0.00     0.045 A 
ATOM      9  C   UNL     1      24.830  26.832  42.197  1.00  0.00     0.026 A 
ATOM     10  C   UNL     1      25.749  24.933  43.351  1.00  0.00     0.052 A 
ATOM     11  C   UNL     1      25.438  27.851  45.805  1.00  0.00     0.046 C 
BRANCH   8  12
ATOM     12  N   UNL     1      26.362  25.080  45.707  1.00  0.00    -0.331 N 
ATOM     13  H   UNL     1      25.641  24.573  46.215  1.00  0.00     0.169 HD
BRANCH  12  14
ATOM     14  C   UNL     1      27.532  24.384  45.719  1.00  0.00     0.187 A 
ATOM     15  N   UNL     1      28.474  24.652  46.598  1.00  0.00    -0.220 NA
ATOM     16  S   UNL     1      27.943  23.120  44.616  1.00  0.00    -0.105 S 
ATOM     17  C   UNL     1      29.587  23.844  46.416  1.00  0.00     0.085 A 
ATOM     18  C   UNL     1      29.464  22.939  45.381  1.00  0.00     0.097 A 
BRANCH  17  19
ATOM     19  C   UNL     1      30.758  23.984  47.275  1.00  0.00     0.019 A 
ATOM     20  C   UNL     1      30.693  24.414  48.604  1.00  0.00     0.013 A 
ATOM     21  C   UNL     1      32.025  23.672  46.781  1.00  0.00     0.121 A 
ATOM     22  C   UNL     1      31.861  24.513  49.365  1.00  0.00     0.021 A 
ATOM     23  N   UNL     1      33.177  23.759  47.496  1.00  0.00    -0.264 NA
ATOM     24  C   UNL     1      33.066  24.177  48.773  1.00  0.00     0.111 A 
ENDBRANCH  17  19
ENDBRANCH  12  14
ENDBRANCH   8  12
ENDBRANCH   1   5
BRANCH   2  25
ATOM     25  C   UNL     1      25.011  24.349  38.583  1.00  0.00     0.040 A 
ATOM     26  C   UNL     1      25.768  23.175  38.621  1.00  0.00     0.014 A 
ATOM     27  C   UNL     1      24.129  24.575  37.519  1.00  0.00     0.014 A 
ATOM     28  C   UNL     1      25.619  22.214  37.619  1.00  0.00     0.006 A 
ATOM     29  C   UNL     1      23.985  23.613  36.514  1.00  0.00     0.006 A 
ATOM     30  C   UNL     1      24.719  22.418  36.562  1.00  0.00    -0.034 A 
BRANCH  30  31
ATOM     31  C   UNL     1      24.573  21.379  35.464  1.00  0.00     0.120 C 
BRANCH  31  32
ATOM     32  N   UNL     1      23.168  21.005  35.219  1.00  0.00    -0.297 NA
ATOM     33  C   UNL     1      22.418  20.959  36.488  1.00  0.00     0.100 C 
ATOM     34  C   UNL     1      23.063  19.690  34.540  1.00  0.00     0.100 C 
ATOM     35  C   UNL     1      22.805  19.807  37.455  1.00  0.00     0.099 C 
ATOM     36  C   UNL     1      22.806  18.460  35.453  1.00  0.00     0.099 C 
ATOM     37  N   UNL     1      23.388  18.626  36.790  1.00  0.00    -0.304 NA
ATOM     38  C   UNL     1      23.231  17.426  37.605  1.00  0.00     0.105 C 
ENDBRANCH  31  32
ENDBRANCH  30  31
ENDBRANCH   2  25
TORSDOF 7
ENDMDL
