MODEL 1
REMARK VINA RESULT:    -9.150      0.000      0.000
REMARK INTER + INTRA:         -15.155
REMARK INTER:                 -13.430
REMARK INTRA:                  -1.726
REMARK UNBOUND:                -1.726
REMARK SMILES CN1CCN(CCOc2cc3c(c(OC4CCOCC4)c2)C(Nc2c(Cl)ccc4c2OCO4)N=CN3)CC1
REMARK SMILES IDX 8 1 7 2 6 3 5 4 2 5 3 6 38 7 4 8 37 9 1 10 9 11 21 12 10 13
REMARK SMILES IDX 13 14 11 15 12 16 36 17 22 18 35 19 34 20 14 22 15 23 16 24
REMARK SMILES IDX 20 25 17 26 19 27 18 28 23 29 24 31 30 32 25 33 31 34 29 35
REMARK SMILES IDX 27 36 32 37 33 38 28 39 26 40
REMARK H PARENT 36 21 23 30
ROOT
ATOM      1  O   UNL     1      -9.156  15.920  -6.308  1.00  0.00    -0.492 OA
ENDROOT
BRANCH   1   2
ATOM      2  C   UNL     1      -7.789  15.635  -6.488  1.00  0.00     0.245 C 
BRANCH   2   3
ATOM      3  C   UNL     1      -7.117  15.143  -5.194  1.00  0.00     0.126 C 
BRANCH   3   4
ATOM      4  N   UNL     1      -7.978  15.031  -4.021  1.00  0.00    -0.297 NA
ATOM      5  N   UNL     1      -8.525  13.911  -1.378  1.00  0.00    -0.304 NA
ATOM      6  C   UNL     1      -9.190  13.414  -2.569  1.00  0.00     0.099 C 
ATOM      7  C   UNL     1      -8.177  15.308  -1.562  1.00  0.00     0.099 C 
ATOM      8  C   UNL     1      -8.339  13.630  -3.829  1.00  0.00     0.100 C 
ATOM      9  C   UNL     1      -7.304  15.496  -2.818  1.00  0.00     0.100 C 
ATOM     10  C   UNL     1      -9.383  13.745  -0.217  1.00  0.00     0.105 C 
ENDBRANCH   3   4
ENDBRANCH   2   3
ENDBRANCH   1   2
BRANCH   1  11
ATOM     11  C   UNL     1      -9.952  15.752  -7.415  1.00  0.00     0.125 A 
ATOM     12  C   UNL     1      -9.706  14.793  -8.327  1.00  0.00     0.093 A 
ATOM     13  C   UNL     1     -11.026  16.513  -7.654  1.00  0.00     0.073 A 
ATOM     14  C   UNL     1     -10.452  14.559  -9.431  1.00  0.00     0.132 A 
ATOM     15  C   UNL     1     -11.793  16.323  -8.738  1.00  0.00     0.054 A 
ATOM     16  C   UNL     1     -11.537  15.350  -9.657  1.00  0.00     0.062 A 
ATOM     17  N   UNL     1     -12.776  17.117  -8.839  1.00  0.00    -0.346 N 
ATOM     18  C   UNL     1     -12.395  15.271 -10.714  1.00  0.00     0.236 C 
ATOM     19  C   UNL     1     -13.515  16.965  -9.846  1.00  0.00     0.193 C 
ATOM     20  N   UNL     1     -13.364  16.101 -10.753  1.00  0.00    -0.246 NA
ATOM     21  H   UNL     1     -12.951  17.814  -8.166  1.00  0.00     0.167 HD
BRANCH  14  22
ATOM     22  O   UNL     1     -10.089  13.553 -10.308  1.00  0.00    -0.490 OA
BRANCH  22  23
ATOM     23  C   UNL     1      -9.983  12.204  -9.922  1.00  0.00     0.178 C 
ATOM     24  C   UNL     1     -11.017  11.786  -8.876  1.00  0.00     0.073 C 
ATOM     25  C   UNL     1     -10.202  11.388 -11.207  1.00  0.00     0.073 C 
ATOM     26  C   UNL     1     -11.101  10.268  -8.763  1.00  0.00     0.164 C 
ATOM     27  C   UNL     1     -10.333   9.899 -10.905  1.00  0.00     0.164 C 
ATOM     28  O   UNL     1     -11.392   9.688 -10.011  1.00  0.00    -0.381 OA
ENDBRANCH  22  23
ENDBRANCH  14  22
BRANCH  18  29
ATOM     29  N   UNL     1     -12.478  14.503 -11.738  1.00  0.00    -0.355 N 
ATOM     30  H   UNL     1     -11.557  14.042 -11.963  1.00  0.00     0.163 HD
BRANCH  29  31
ATOM     31  C   UNL     1     -13.372  14.133 -12.576  1.00  0.00     0.102 A 
ATOM     32  C   UNL     1     -13.669  14.792 -13.718  1.00  0.00     0.190 A 
ATOM     33  C   UNL     1     -14.099  13.004 -12.340  1.00  0.00     0.068 A 
ATOM     34  O   UNL     1     -13.154  15.826 -14.150  1.00  0.00    -0.451 OA
ATOM     35  C   UNL     1     -14.621  14.378 -14.564  1.00  0.00     0.168 A 
ATOM     36  C   UNL     1     -15.057  12.595 -13.196  1.00  0.00     0.027 A 
ATOM     37  C   UNL     1     -13.733  16.129 -15.418  1.00  0.00     0.468 C 
ATOM     38  O   UNL     1     -14.729  15.121 -15.539  1.00  0.00    -0.454 OA
ATOM     39  C   UNL     1     -15.331  13.273 -14.319  1.00  0.00     0.052 A 
ATOM     40  Cl  UNL     1     -13.900  11.994 -10.937  1.00  0.00    -0.082 Cl
ENDBRANCH  29  31
ENDBRANCH  18  29
ENDBRANCH   1  11
TORSDOF 8
ENDMDL
MODEL 2
REMARK VINA RESULT:    -9.112      1.560      2.021
REMARK INTER + INTRA:         -15.100
REMARK INTER:                 -13.171
REMARK INTRA:                  -1.929
REMARK UNBOUND:                -1.726
REMARK SMILES CN1CCN(CCOc2cc3c(c(OC4CCOCC4)c2)C(Nc2c(Cl)ccc4c2OCO4)N=CN3)CC1
REMARK SMILES IDX 8 1 7 2 6 3 5 4 2 5 3 6 38 7 4 8 37 9 1 10 9 11 21 12 10 13
REMARK SMILES IDX 13 14 11 15 12 16 36 17 22 18 35 19 34 20 14 22 15 23 16 24
REMARK SMILES IDX 20 25 17 26 19 27 18 28 23 29 24 31 30 32 25 33 31 34 29 35
REMARK SMILES IDX 27 36 32 37 33 38 28 39 26 40
REMARK H PARENT 36 21 23 30
ROOT
ATOM      1  O   UNL     1      -9.401  16.368  -6.255  1.00  0.00    -0.492 OA
ENDROOT
BRANCH   1   2
ATOM      2  C   UNL     1      -8.004  16.319  -6.414  1.00  0.00     0.245 C 
BRANCH   2   3
ATOM      3  C   UNL     1      -7.310  15.544  -5.280  1.00  0.00     0.126 C 
BRANCH   3   4
ATOM      4  N   UNL     1      -8.111  15.289  -4.088  1.00  0.00    -0.297 NA
ATOM      5  N   UNL     1      -8.432  14.020  -1.474  1.00  0.00    -0.304 NA
ATOM      6  C   UNL     1      -9.071  13.487  -2.664  1.00  0.00     0.099 C 
ATOM      7  C   UNL     1      -8.261  15.455  -1.616  1.00  0.00     0.099 C 
ATOM      8  C   UNL     1      -8.295  13.848  -3.939  1.00  0.00     0.100 C 
ATOM      9  C   UNL     1      -7.459  15.790  -2.888  1.00  0.00     0.100 C 
ATOM     10  C   UNL     1      -9.225  13.711  -0.297  1.00  0.00     0.105 C 
ENDBRANCH   3   4
ENDBRANCH   2   3
ENDBRANCH   1   2
BRANCH   1  11
ATOM     11  C   UNL     1     -10.141  16.096  -7.380  1.00  0.00     0.125 A 
ATOM     12  C   UNL     1      -9.791  15.124  -8.242  1.00  0.00     0.093 A 
ATOM     13  C   UNL     1     -11.260  16.763  -7.687  1.00  0.00     0.073 A 
ATOM     14  C   UNL     1     -10.476  14.790  -9.360  1.00  0.00     0.132 A 
ATOM     15  C   UNL     1     -11.969  16.474  -8.787  1.00  0.00     0.054 A 
ATOM     16  C   UNL     1     -11.608  15.488  -9.655  1.00  0.00     0.062 A 
ATOM     17  N   UNL     1     -13.004  17.186  -8.955  1.00  0.00    -0.346 N 
ATOM     18  C   UNL     1     -12.418  15.302 -10.737  1.00  0.00     0.236 C 
ATOM     19  C   UNL     1     -13.692  16.940  -9.979  1.00  0.00     0.193 C 
ATOM     20  N   UNL     1     -13.444  16.055 -10.844  1.00  0.00    -0.246 NA
ATOM     21  H   UNL     1     -13.255  17.894  -8.319  1.00  0.00     0.167 HD
BRANCH  14  22
ATOM     22  O   UNL     1     -10.007  13.782 -10.181  1.00  0.00    -0.490 OA
BRANCH  22  23
ATOM     23  C   UNL     1      -9.897  12.443  -9.761  1.00  0.00     0.178 C 
ATOM     24  C   UNL     1     -11.024  12.003  -8.826  1.00  0.00     0.073 C 
ATOM     25  C   UNL     1      -9.944  11.600 -11.046  1.00  0.00     0.073 C 
ATOM     26  C   UNL     1     -11.068  10.484  -8.694  1.00  0.00     0.164 C 
ATOM     27  C   UNL     1     -10.056  10.112 -10.732  1.00  0.00     0.164 C 
ATOM     28  O   UNL     1     -11.199   9.875  -9.956  1.00  0.00    -0.381 OA
ENDBRANCH  22  23
ENDBRANCH  14  22
BRANCH  18  29
ATOM     29  N   UNL     1     -12.405  14.491 -11.730  1.00  0.00    -0.355 N 
ATOM     30  H   UNL     1     -11.432  14.334 -12.101  1.00  0.00     0.163 HD
BRANCH  29  31
ATOM     31  C   UNL     1     -13.250  13.808 -12.407  1.00  0.00     0.102 A 
ATOM     32  C   UNL     1     -13.789  12.636 -12.000  1.00  0.00     0.190 A 
ATOM     33  C   UNL     1     -13.661  14.253 -13.629  1.00  0.00     0.068 A 
ATOM     34  O   UNL     1     -13.580  12.036 -10.943  1.00  0.00    -0.451 OA
ATOM     35  C   UNL     1     -14.661  11.945 -12.744  1.00  0.00     0.168 A 
ATOM     36  C   UNL     1     -14.538  13.549 -14.372  1.00  0.00     0.027 A 
ATOM     37  C   UNL     1     -14.409  10.876 -10.906  1.00  0.00     0.468 C 
ATOM     38  O   UNL     1     -15.027  10.911 -12.188  1.00  0.00    -0.454 OA
ATOM     39  C   UNL     1     -15.052  12.389 -13.942  1.00  0.00     0.052 A 
ATOM     40  Cl  UNL     1     -13.104  15.729 -14.364  1.00  0.00    -0.082 Cl
ENDBRANCH  29  31
ENDBRANCH  18  29
ENDBRANCH   1  11
TORSDOF 8
ENDMDL
MODEL 3
REMARK VINA RESULT:    -8.978      1.646      2.521
REMARK INTER + INTRA:         -14.902
REMARK INTER:                 -12.789
REMARK INTRA:                  -2.113
REMARK UNBOUND:                -1.726
REMARK SMILES CN1CCN(CCOc2cc3c(c(OC4CCOCC4)c2)C(Nc2c(Cl)ccc4c2OCO4)N=CN3)CC1
REMARK SMILES IDX 8 1 7 2 6 3 5 4 2 5 3 6 38 7 4 8 37 9 1 10 9 11 21 12 10 13
REMARK SMILES IDX 13 14 11 15 12 16 36 17 22 18 35 19 34 20 14 22 15 23 16 24
REMARK SMILES IDX 20 25 17 26 19 27 18 28 23 29 24 31 30 32 25 33 31 34 29 35
REMARK SMILES IDX 27 36 32 37 33 38 28 39 26 40
REMARK H PARENT 36 21 23 30
ROOT
ATOM      1  O   UNL     1      -9.590  15.978  -6.561  1.00  0.00    -0.492 OA
ENDROOT
BRANCH   1   2
ATOM      2  C   UNL     1      -8.347  15.318  -6.547  1.00  0.00     0.245 C 
BRANCH   2   3
ATOM      3  C   UNL     1      -8.183  14.403  -5.322  1.00  0.00     0.126 C 
BRANCH   3   4
ATOM      4  N   UNL     1      -7.934  12.992  -5.598  1.00  0.00    -0.297 NA
ATOM      5  N   UNL     1      -7.611  10.801  -7.506  1.00  0.00    -0.304 NA
ATOM      6  C   UNL     1      -8.841  10.983  -6.755  1.00  0.00     0.099 C 
ATOM      7  C   UNL     1      -6.493  11.325  -6.742  1.00  0.00     0.099 C 
ATOM      8  C   UNL     1      -9.055  12.451  -6.360  1.00  0.00     0.100 C 
ATOM      9  C   UNL     1      -6.721  12.805  -6.380  1.00  0.00     0.100 C 
ATOM     10  C   UNL     1      -7.412   9.394  -7.808  1.00  0.00     0.105 C 
ENDBRANCH   3   4
ENDBRANCH   2   3
ENDBRANCH   1   2
BRANCH   1  11
ATOM     11  C   UNL     1     -10.353  15.793  -7.687  1.00  0.00     0.125 A 
ATOM     12  C   UNL     1     -10.064  14.838  -8.591  1.00  0.00     0.093 A 
ATOM     13  C   UNL     1     -11.436  16.532  -7.956  1.00  0.00     0.073 A 
ATOM     14  C   UNL     1     -10.776  14.588  -9.714  1.00  0.00     0.132 A 
ATOM     15  C   UNL     1     -12.169  16.325  -9.059  1.00  0.00     0.054 A 
ATOM     16  C   UNL     1     -11.870  15.357  -9.970  1.00  0.00     0.062 A 
ATOM     17  N   UNL     1     -13.165  17.099  -9.188  1.00  0.00    -0.346 N 
ATOM     18  C   UNL     1     -12.699  15.260 -11.049  1.00  0.00     0.236 C 
ATOM     19  C   UNL     1     -13.874  16.932 -10.214  1.00  0.00     0.193 C 
ATOM     20  N   UNL     1     -13.682  16.070 -11.115  1.00  0.00    -0.246 NA
ATOM     21  H   UNL     1     -13.372  17.794  -8.521  1.00  0.00     0.167 HD
BRANCH  14  22
ATOM     22  O   UNL     1     -10.370  13.589 -10.579  1.00  0.00    -0.490 OA
BRANCH  22  23
ATOM     23  C   UNL     1     -10.307  12.233 -10.206  1.00  0.00     0.178 C 
ATOM     24  C   UNL     1     -11.448  11.801  -9.284  1.00  0.00     0.073 C 
ATOM     25  C   UNL     1     -10.387  11.438 -11.519  1.00  0.00     0.073 C 
ATOM     26  C   UNL     1     -11.545  10.281  -9.205  1.00  0.00     0.164 C 
ATOM     27  C   UNL     1     -10.551   9.944 -11.258  1.00  0.00     0.164 C 
ATOM     28  O   UNL     1     -11.700   9.722 -10.486  1.00  0.00    -0.381 OA
ENDBRANCH  22  23
ENDBRANCH  14  22
BRANCH  18  29
ATOM     29  N   UNL     1     -12.739  14.489 -12.073  1.00  0.00    -0.355 N 
ATOM     30  H   UNL     1     -11.814  14.016 -12.250  1.00  0.00     0.163 HD
BRANCH  29  31
ATOM     31  C   UNL     1     -13.594  14.126 -12.954  1.00  0.00     0.102 A 
ATOM     32  C   UNL     1     -13.825  14.785 -14.113  1.00  0.00     0.190 A 
ATOM     33  C   UNL     1     -14.346  13.007 -12.752  1.00  0.00     0.068 A 
ATOM     34  O   UNL     1     -13.275  15.810 -14.521  1.00  0.00    -0.451 OA
ATOM     35  C   UNL     1     -14.738  14.378 -15.004  1.00  0.00     0.168 A 
ATOM     36  C   UNL     1     -15.264  12.607 -13.653  1.00  0.00     0.027 A 
ATOM     37  C   UNL     1     -13.785  16.114 -15.819  1.00  0.00     0.468 C 
ATOM     38  O   UNL     1     -14.786  15.118 -15.986  1.00  0.00    -0.454 OA
ATOM     39  C   UNL     1     -15.472  13.283 -14.792  1.00  0.00     0.052 A 
ATOM     40  Cl  UNL     1     -14.231  12.001 -11.336  1.00  0.00    -0.082 Cl
ENDBRANCH  29  31
ENDBRANCH  18  29
ENDBRANCH   1  11
TORSDOF 8
ENDMDL
MODEL 4
REMARK VINA RESULT:    -8.946      1.752      2.500
REMARK INTER + INTRA:         -14.856
REMARK INTER:                 -12.929
REMARK INTRA:                  -1.927
REMARK UNBOUND:                -1.726
REMARK SMILES CN1CCN(CCOc2cc3c(c(OC4CCOCC4)c2)C(Nc2c(Cl)ccc4c2OCO4)N=CN3)CC1
REMARK SMILES IDX 8 1 7 2 6 3 5 4 2 5 3 6 38 7 4 8 37 9 1 10 9 11 21 12 10 13
REMARK SMILES IDX 13 14 11 15 12 16 36 17 22 18 35 19 34 20 14 22 15 23 16 24
REMARK SMILES IDX 20 25 17 26 19 27 18 28 23 29 24 31 30 32 25 33 31 34 29 35
REMARK SMILES IDX 27 36 32 37 33 38 28 39 26 40
REMARK H PARENT 36 21 23 30
ROOT
ATOM      1  O   UNL     1     -10.163  12.651  -6.459  1.00  0.00    -0.492 OA
ENDROOT
BRANCH   1   2
ATOM      2  C   UNL     1      -8.812  12.261  -6.523  1.00  0.00     0.245 C 
BRANCH   2   3
ATOM      3  C   UNL     1      -7.886  13.221  -5.756  1.00  0.00     0.126 C 
BRANCH   3   4
ATOM      4  N   UNL     1      -8.390  14.574  -5.545  1.00  0.00    -0.297 NA
ATOM      5  N   UNL     1      -7.923  17.369  -4.832  1.00  0.00    -0.304 NA
ATOM      6  C   UNL     1      -8.518  16.433  -3.895  1.00  0.00     0.099 C 
ATOM      7  C   UNL     1      -8.240  16.966  -6.190  1.00  0.00     0.099 C 
ATOM      8  C   UNL     1      -8.082  14.988  -4.180  1.00  0.00     0.100 C 
ATOM      9  C   UNL     1      -7.772  15.523  -6.458  1.00  0.00     0.100 C 
ATOM     10  C   UNL     1      -8.404  18.715  -4.570  1.00  0.00     0.105 C 
ENDBRANCH   3   4
ENDBRANCH   2   3
ENDBRANCH   1   2
BRANCH   1  11
ATOM     11  C   UNL     1     -10.719  13.077  -7.640  1.00  0.00     0.125 A 
ATOM     12  C   UNL     1     -10.829  12.264  -8.707  1.00  0.00     0.093 A 
ATOM     13  C   UNL     1     -11.199  14.315  -7.807  1.00  0.00     0.073 A 
ATOM     14  C   UNL     1     -11.377  12.607  -9.894  1.00  0.00     0.132 A 
ATOM     15  C   UNL     1     -11.745  14.704  -8.968  1.00  0.00     0.054 A 
ATOM     16  C   UNL     1     -11.853  13.875 -10.043  1.00  0.00     0.062 A 
ATOM     17  N   UNL     1     -12.157  15.903  -8.986  1.00  0.00    -0.346 N 
ATOM     18  C   UNL     1     -12.426  14.402 -11.164  1.00  0.00     0.236 C 
ATOM     19  C   UNL     1     -12.675  16.300 -10.061  1.00  0.00     0.193 C 
ATOM     20  N   UNL     1     -12.819  15.616 -11.112  1.00  0.00    -0.246 NA
ATOM     21  H   UNL     1     -12.075  16.491  -8.200  1.00  0.00     0.167 HD
BRANCH  14  22
ATOM     22  O   UNL     1     -11.418  11.688 -10.927  1.00  0.00    -0.490 OA
BRANCH  22  23
ATOM     23  C   UNL     1     -10.849  10.405 -10.830  1.00  0.00     0.178 C 
ATOM     24  C   UNL     1     -11.882   9.292 -10.647  1.00  0.00     0.073 C 
ATOM     25  C   UNL     1     -10.096  10.186 -12.153  1.00  0.00     0.073 C 
ATOM     26  C   UNL     1     -11.267   7.922 -10.911  1.00  0.00     0.164 C 
ATOM     27  C   UNL     1      -9.609   8.747 -12.285  1.00  0.00     0.164 C 
ATOM     28  O   UNL     1     -10.698   7.868 -12.197  1.00  0.00    -0.381 OA
ENDBRANCH  22  23
ENDBRANCH  14  22
BRANCH  18  29
ATOM     29  N   UNL     1     -12.697  13.937 -12.327  1.00  0.00    -0.355 N 
ATOM     30  H   UNL     1     -11.863  13.471 -12.772  1.00  0.00     0.163 HD
BRANCH  29  31
ATOM     31  C   UNL     1     -13.706  13.877 -13.113  1.00  0.00     0.102 A 
ATOM     32  C   UNL     1     -13.903  14.700 -14.168  1.00  0.00     0.190 A 
ATOM     33  C   UNL     1     -14.672  12.937 -12.910  1.00  0.00     0.068 A 
ATOM     34  O   UNL     1     -13.178  15.619 -14.555  1.00  0.00    -0.451 OA
ATOM     35  C   UNL     1     -14.979  14.613 -14.960  1.00  0.00     0.168 A 
ATOM     36  C   UNL     1     -15.753  12.858 -13.711  1.00  0.00     0.027 A 
ATOM     37  C   UNL     1     -13.743  16.177 -15.741  1.00  0.00     0.468 C 
ATOM     38  O   UNL     1     -14.962  15.454 -15.858  1.00  0.00    -0.454 OA
ATOM     39  C   UNL     1     -15.922  13.690 -14.748  1.00  0.00     0.052 A 
ATOM     40  Cl  UNL     1     -14.639  11.772 -11.617  1.00  0.00    -0.082 Cl
ENDBRANCH  29  31
ENDBRANCH  18  29
ENDBRANCH   1  11
TORSDOF 8
ENDMDL
MODEL 5
REMARK VINA RESULT:    -8.828      2.128      3.178
REMARK INTER + INTRA:         -14.682
REMARK INTER:                 -12.442
REMARK INTRA:                  -2.240
REMARK UNBOUND:                -1.726
REMARK SMILES CN1CCN(CCOc2cc3c(c(OC4CCOCC4)c2)C(Nc2c(Cl)ccc4c2OCO4)N=CN3)CC1
REMARK SMILES IDX 8 1 7 2 6 3 5 4 2 5 3 6 38 7 4 8 37 9 1 10 9 11 21 12 10 13
REMARK SMILES IDX 13 14 11 15 12 16 36 17 22 18 35 19 34 20 14 22 15 23 16 24
REMARK SMILES IDX 20 25 17 26 19 27 18 28 23 29 24 31 30 32 25 33 31 34 29 35
REMARK SMILES IDX 27 36 32 37 33 38 28 39 26 40
REMARK H PARENT 36 21 23 30
ROOT
ATOM      1  O   UNL     1      -9.488  16.188  -6.231  1.00  0.00    -0.492 OA
ENDROOT
BRANCH   1   2
ATOM      2  C   UNL     1      -8.337  15.391  -6.079  1.00  0.00     0.245 C 
BRANCH   2   3
ATOM      3  C   UNL     1      -8.543  14.250  -5.069  1.00  0.00     0.126 C 
BRANCH   3   4
ATOM      4  N   UNL     1      -7.995  12.950  -5.441  1.00  0.00    -0.297 NA
ATOM      5  N   UNL     1      -7.215  11.023  -7.496  1.00  0.00    -0.304 NA
ATOM      6  C   UNL     1      -8.450  10.879  -6.745  1.00  0.00     0.099 C 
ATOM      7  C   UNL     1      -6.233  11.723  -6.688  1.00  0.00     0.099 C 
ATOM      8  C   UNL     1      -8.976  12.234  -6.250  1.00  0.00     0.100 C 
ATOM      9  C   UNL     1      -6.776  13.088  -6.224  1.00  0.00     0.100 C 
ATOM     10  C   UNL     1      -6.715   9.719  -7.895  1.00  0.00     0.105 C 
ENDBRANCH   3   4
ENDBRANCH   2   3
ENDBRANCH   1   2
BRANCH   1  11
ATOM     11  C   UNL     1     -10.216  15.976  -7.376  1.00  0.00     0.125 A 
ATOM     12  C   UNL     1      -9.862  15.042  -8.279  1.00  0.00     0.093 A 
ATOM     13  C   UNL     1     -11.324  16.667  -7.666  1.00  0.00     0.073 A 
ATOM     14  C   UNL     1     -10.536  14.767  -9.419  1.00  0.00     0.132 A 
ATOM     15  C   UNL     1     -12.022  16.435  -8.787  1.00  0.00     0.054 A 
ATOM     16  C   UNL     1     -11.658  15.487  -9.696  1.00  0.00     0.062 A 
ATOM     17  N   UNL     1     -13.048  17.164  -8.934  1.00  0.00    -0.346 N 
ATOM     18  C   UNL     1     -12.456  15.360 -10.795  1.00  0.00     0.236 C 
ATOM     19  C   UNL     1     -13.725  16.972  -9.977  1.00  0.00     0.193 C 
ATOM     20  N   UNL     1     -13.474  16.125 -10.879  1.00  0.00    -0.246 NA
ATOM     21  H   UNL     1     -13.302  17.844  -8.268  1.00  0.00     0.167 HD
BRANCH  14  22
ATOM     22  O   UNL     1     -10.065  13.793 -10.280  1.00  0.00    -0.490 OA
BRANCH  22  23
ATOM     23  C   UNL     1      -9.964  12.437  -9.919  1.00  0.00     0.178 C 
ATOM     24  C   UNL     1     -11.155  11.933  -9.103  1.00  0.00     0.073 C 
ATOM     25  C   UNL     1      -9.890  11.660 -11.244  1.00  0.00     0.073 C 
ATOM     26  C   UNL     1     -11.180  10.409  -9.051  1.00  0.00     0.164 C 
ATOM     27  C   UNL     1      -9.998  10.156 -11.015  1.00  0.00     0.164 C 
ATOM     28  O   UNL     1     -11.196   9.863 -10.347  1.00  0.00    -0.381 OA
ENDBRANCH  22  23
ENDBRANCH  14  22
BRANCH  18  29
ATOM     29  N   UNL     1     -12.437  14.596 -11.824  1.00  0.00    -0.355 N 
ATOM     30  H   UNL     1     -11.472  14.513 -12.239  1.00  0.00     0.163 HD
BRANCH  29  31
ATOM     31  C   UNL     1     -13.268  13.895 -12.500  1.00  0.00     0.102 A 
ATOM     32  C   UNL     1     -13.802  12.725 -12.081  1.00  0.00     0.190 A 
ATOM     33  C   UNL     1     -13.670  14.318 -13.733  1.00  0.00     0.068 A 
ATOM     34  O   UNL     1     -13.599  12.143 -11.013  1.00  0.00    -0.451 OA
ATOM     35  C   UNL     1     -14.660  12.016 -12.824  1.00  0.00     0.168 A 
ATOM     36  C   UNL     1     -14.533  13.596 -14.475  1.00  0.00     0.027 A 
ATOM     37  C   UNL     1     -14.419  10.976 -10.968  1.00  0.00     0.468 C 
ATOM     38  O   UNL     1     -15.023  10.986 -12.257  1.00  0.00    -0.454 OA
ATOM     39  C   UNL     1     -15.042  12.438 -14.033  1.00  0.00     0.052 A 
ATOM     40  Cl  UNL     1     -13.117  15.788 -14.485  1.00  0.00    -0.082 Cl
ENDBRANCH  29  31
ENDBRANCH  18  29
ENDBRANCH   1  11
TORSDOF 8
ENDMDL
MODEL 6
REMARK VINA RESULT:    -8.804      3.018      3.822
REMARK INTER + INTRA:         -14.647
REMARK INTER:                 -12.655
REMARK INTRA:                  -1.992
REMARK UNBOUND:                -1.726
REMARK SMILES CN1CCN(CCOc2cc3c(c(OC4CCOCC4)c2)C(Nc2c(Cl)ccc4c2OCO4)N=CN3)CC1
REMARK SMILES IDX 8 1 7 2 6 3 5 4 2 5 3 6 38 7 4 8 37 9 1 10 9 11 21 12 10 13
REMARK SMILES IDX 13 14 11 15 12 16 36 17 22 18 35 19 34 20 14 22 15 23 16 24
REMARK SMILES IDX 20 25 17 26 19 27 18 28 23 29 24 31 30 32 25 33 31 34 29 35
REMARK SMILES IDX 27 36 32 37 33 38 28 39 26 40
REMARK H PARENT 36 21 23 30
ROOT
ATOM      1  O   UNL     1     -10.376  15.877  -8.042  1.00  0.00    -0.492 OA
ENDROOT
BRANCH   1   2
ATOM      2  C   UNL     1     -10.112  14.759  -7.228  1.00  0.00     0.245 C 
BRANCH   2   3
ATOM      3  C   UNL     1      -8.718  14.162  -7.485  1.00  0.00     0.126 C 
BRANCH   3   4
ATOM      4  N   UNL     1      -8.676  12.749  -7.844  1.00  0.00    -0.297 NA
ATOM      5  N   UNL     1      -8.975   9.936  -7.105  1.00  0.00    -0.304 NA
ATOM      6  C   UNL     1      -7.668  10.554  -7.240  1.00  0.00     0.099 C 
ATOM      7  C   UNL     1      -9.922  10.606  -7.979  1.00  0.00     0.099 C 
ATOM      8  C   UNL     1      -7.722  12.066  -6.975  1.00  0.00     0.100 C 
ATOM      9  C   UNL     1      -9.976  12.115  -7.677  1.00  0.00     0.100 C 
ATOM     10  C   UNL     1      -8.897   8.521  -7.422  1.00  0.00     0.105 C 
ENDBRANCH   3   4
ENDBRANCH   2   3
ENDBRANCH   1   2
BRANCH   1  11
ATOM     11  C   UNL     1     -11.305  15.689  -9.035  1.00  0.00     0.125 A 
ATOM     12  C   UNL     1     -11.231  14.649  -9.887  1.00  0.00     0.093 A 
ATOM     13  C   UNL     1     -12.346  16.509  -9.216  1.00  0.00     0.073 A 
ATOM     14  C   UNL     1     -12.115  14.391 -10.879  1.00  0.00     0.132 A 
ATOM     15  C   UNL     1     -13.244  16.298 -10.189  1.00  0.00     0.054 A 
ATOM     16  C   UNL     1     -13.163  15.244 -11.048  1.00  0.00     0.062 A 
ATOM     17  N   UNL     1     -14.176  17.155 -10.246  1.00  0.00    -0.346 N 
ATOM     18  C   UNL     1     -14.142  15.152 -11.994  1.00  0.00     0.236 C 
ATOM     19  C   UNL     1     -15.036  16.987 -11.149  1.00  0.00     0.193 C 
ATOM     20  N   UNL     1     -15.051  16.049 -11.993  1.00  0.00    -0.246 NA
ATOM     21  H   UNL     1     -14.225  17.912  -9.618  1.00  0.00     0.167 HD
BRANCH  14  22
ATOM     22  O   UNL     1     -11.925  13.299 -11.705  1.00  0.00    -0.490 OA
BRANCH  22  23
ATOM     23  C   UNL     1     -11.965  11.972 -11.238  1.00  0.00     0.178 C 
ATOM     24  C   UNL     1     -13.370  11.502 -10.856  1.00  0.00     0.073 C 
ATOM     25  C   UNL     1     -11.440  11.109 -12.398  1.00  0.00     0.073 C 
ATOM     26  C   UNL     1     -13.422   9.985 -10.710  1.00  0.00     0.164 C 
ATOM     27  C   UNL     1     -11.632   9.622 -12.118  1.00  0.00     0.164 C 
ATOM     28  O   UNL     1     -12.989   9.354 -11.891  1.00  0.00    -0.381 OA
ENDBRANCH  22  23
ENDBRANCH  14  22
BRANCH  18  29
ATOM     29  N   UNL     1     -14.394  14.319 -12.935  1.00  0.00    -0.355 N 
ATOM     30  H   UNL     1     -14.270  13.320 -12.624  1.00  0.00     0.163 HD
BRANCH  29  31
ATOM     31  C   UNL     1     -14.759  14.356 -14.162  1.00  0.00     0.102 A 
ATOM     32  C   UNL     1     -15.880  13.772 -14.644  1.00  0.00     0.190 A 
ATOM     33  C   UNL     1     -13.996  15.016 -15.079  1.00  0.00     0.068 A 
ATOM     34  O   UNL     1     -16.725  13.128 -14.019  1.00  0.00    -0.451 OA
ATOM     35  C   UNL     1     -16.221  13.824 -15.938  1.00  0.00     0.168 A 
ATOM     36  C   UNL     1     -14.346  15.061 -16.379  1.00  0.00     0.027 A 
ATOM     37  C   UNL     1     -17.769  12.754 -14.917  1.00  0.00     0.468 C 
ATOM     38  O   UNL     1     -17.274  13.230 -16.163  1.00  0.00    -0.454 OA
ATOM     39  C   UNL     1     -15.461  14.469 -16.828  1.00  0.00     0.052 A 
ATOM     40  Cl  UNL     1     -12.510  15.838 -14.697  1.00  0.00    -0.082 Cl
ENDBRANCH  29  31
ENDBRANCH  18  29
ENDBRANCH   1  11
TORSDOF 8
ENDMDL
MODEL 7
REMARK VINA RESULT:    -8.737      2.631      3.584
REMARK INTER + INTRA:         -14.549
REMARK INTER:                 -12.798
REMARK INTRA:                  -1.750
REMARK UNBOUND:                -1.726
REMARK SMILES CN1CCN(CCOc2cc3c(c(OC4CCOCC4)c2)C(Nc2c(Cl)ccc4c2OCO4)N=CN3)CC1
REMARK SMILES IDX 8 1 7 2 6 3 5 4 2 5 3 6 38 7 4 8 37 9 1 10 9 11 21 12 10 13
REMARK SMILES IDX 13 14 11 15 12 16 36 17 22 18 35 19 34 20 14 22 15 23 16 24
REMARK SMILES IDX 20 25 17 26 19 27 18 28 23 29 24 31 30 32 25 33 31 34 29 35
REMARK SMILES IDX 27 36 32 37 33 38 28 39 26 40
REMARK H PARENT 36 21 23 30
ROOT
ATOM      1  O   UNL     1      -9.234  15.887  -6.229  1.00  0.00    -0.492 OA
ENDROOT
BRANCH   1   2
ATOM      2  C   UNL     1      -8.444  17.051  -6.175  1.00  0.00     0.245 C 
BRANCH   2   3
ATOM      3  C   UNL     1      -7.543  17.092  -4.928  1.00  0.00     0.126 C 
BRANCH   3   4
ATOM      4  N   UNL     1      -7.128  18.415  -4.474  1.00  0.00    -0.297 NA
ATOM      5  N   UNL     1      -7.414  21.323  -4.542  1.00  0.00    -0.304 NA
ATOM      6  C   UNL     1      -6.340  20.646  -5.246  1.00  0.00     0.099 C 
ATOM      7  C   UNL     1      -7.805  20.540  -3.384  1.00  0.00     0.099 C 
ATOM      8  C   UNL     1      -6.726  19.211  -5.630  1.00  0.00     0.100 C 
ATOM      9  C   UNL     1      -8.212  19.113  -3.797  1.00  0.00     0.100 C 
ATOM     10  C   UNL     1      -6.992  22.654  -4.142  1.00  0.00     0.105 C 
ENDBRANCH   3   4
ENDBRANCH   2   3
ENDBRANCH   1   2
BRANCH   1  11
ATOM     11  C   UNL     1      -9.994  15.733  -7.362  1.00  0.00     0.125 A 
ATOM     12  C   UNL     1      -9.699  14.807  -8.293  1.00  0.00     0.093 A 
ATOM     13  C   UNL     1     -11.079  16.475  -7.611  1.00  0.00     0.073 A 
ATOM     14  C   UNL     1     -10.408  14.587  -9.424  1.00  0.00     0.132 A 
ATOM     15  C   UNL     1     -11.809  16.299  -8.721  1.00  0.00     0.054 A 
ATOM     16  C   UNL     1     -11.505  15.359  -9.659  1.00  0.00     0.062 A 
ATOM     17  N   UNL     1     -12.808  17.072  -8.829  1.00  0.00    -0.346 N 
ATOM     18  C   UNL     1     -12.331  15.290 -10.743  1.00  0.00     0.236 C 
ATOM     19  C   UNL     1     -13.514  16.933  -9.860  1.00  0.00     0.193 C 
ATOM     20  N   UNL     1     -13.317  16.099 -10.787  1.00  0.00    -0.246 NA
ATOM     21  H   UNL     1     -13.019  17.746  -8.142  1.00  0.00     0.167 HD
BRANCH  14  22
ATOM     22  O   UNL     1      -9.996  13.616 -10.318  1.00  0.00    -0.490 OA
BRANCH  22  23
ATOM     23  C   UNL     1      -9.863  12.260  -9.966  1.00  0.00     0.178 C 
ATOM     24  C   UNL     1     -10.875  11.800  -8.916  1.00  0.00     0.073 C 
ATOM     25  C   UNL     1     -10.086  11.470 -11.266  1.00  0.00     0.073 C 
ATOM     26  C   UNL     1     -10.933  10.278  -8.837  1.00  0.00     0.164 C 
ATOM     27  C   UNL     1     -10.189   9.972 -10.998  1.00  0.00     0.164 C 
ATOM     28  O   UNL     1     -11.232   9.723 -10.095  1.00  0.00    -0.381 OA
ENDBRANCH  22  23
ENDBRANCH  14  22
BRANCH  18  29
ATOM     29  N   UNL     1     -12.366  14.551 -11.789  1.00  0.00    -0.355 N 
ATOM     30  H   UNL     1     -11.426  14.489 -12.263  1.00  0.00     0.163 HD
BRANCH  29  31
ATOM     31  C   UNL     1     -13.229  13.857 -12.432  1.00  0.00     0.102 A 
ATOM     32  C   UNL     1     -13.759  12.695 -11.988  1.00  0.00     0.190 A 
ATOM     33  C   UNL     1     -13.670  14.279 -13.651  1.00  0.00     0.068 A 
ATOM     34  O   UNL     1     -13.524  12.114 -10.926  1.00  0.00    -0.451 OA
ATOM     35  C   UNL     1     -14.652  11.992 -12.696  1.00  0.00     0.168 A 
ATOM     36  C   UNL     1     -14.567  13.564 -14.358  1.00  0.00     0.027 A 
ATOM     37  C   UNL     1     -14.355  10.957 -10.845  1.00  0.00     0.468 C 
ATOM     38  O   UNL     1     -15.005  10.969 -12.111  1.00  0.00    -0.454 OA
ATOM     39  C   UNL     1     -15.072  12.413 -13.892  1.00  0.00     0.052 A 
ATOM     40  Cl  UNL     1     -13.129  15.739 -14.429  1.00  0.00    -0.082 Cl
ENDBRANCH  29  31
ENDBRANCH  18  29
ENDBRANCH   1  11
TORSDOF 8
ENDMDL
MODEL 8
REMARK VINA RESULT:    -8.729      2.263      3.007
REMARK INTER + INTRA:         -14.536
REMARK INTER:                 -12.980
REMARK INTRA:                  -1.556
REMARK UNBOUND:                -1.726
REMARK SMILES CN1CCN(CCOc2cc3c(c(OC4CCOCC4)c2)C(Nc2c(Cl)ccc4c2OCO4)N=CN3)CC1
REMARK SMILES IDX 8 1 7 2 6 3 5 4 2 5 3 6 38 7 4 8 37 9 1 10 9 11 21 12 10 13
REMARK SMILES IDX 13 14 11 15 12 16 36 17 22 18 35 19 34 20 14 22 15 23 16 24
REMARK SMILES IDX 20 25 17 26 19 27 18 28 23 29 24 31 30 32 25 33 31 34 29 35
REMARK SMILES IDX 27 36 32 37 33 38 28 39 26 40
REMARK H PARENT 36 21 23 30
ROOT
ATOM      1  O   UNL     1      -9.266  15.898  -6.265  1.00  0.00    -0.492 OA
ENDROOT
BRANCH   1   2
ATOM      2  C   UNL     1      -9.433  17.117  -5.581  1.00  0.00     0.245 C 
BRANCH   2   3
ATOM      3  C   UNL     1      -8.551  17.210  -4.325  1.00  0.00     0.126 C 
BRANCH   3   4
ATOM      4  N   UNL     1      -7.649  18.355  -4.252  1.00  0.00    -0.297 NA
ATOM      5  N   UNL     1      -7.022  21.133  -4.908  1.00  0.00    -0.304 NA
ATOM      6  C   UNL     1      -6.413  20.026  -5.622  1.00  0.00     0.099 C 
ATOM      7  C   UNL     1      -7.350  20.719  -3.556  1.00  0.00     0.099 C 
ATOM      8  C   UNL     1      -7.307  18.777  -5.607  1.00  0.00     0.100 C 
ATOM      9  C   UNL     1      -8.267  19.481  -3.568  1.00  0.00     0.100 C 
ATOM     10  C   UNL     1      -6.124  22.275  -4.890  1.00  0.00     0.105 C 
ENDBRANCH   3   4
ENDBRANCH   2   3
ENDBRANCH   1   2
BRANCH   1  11
ATOM     11  C   UNL     1     -10.043  15.730  -7.385  1.00  0.00     0.125 A 
ATOM     12  C   UNL     1      -9.799  14.752  -8.278  1.00  0.00     0.093 A 
ATOM     13  C   UNL     1     -11.096  16.509  -7.658  1.00  0.00     0.073 A 
ATOM     14  C   UNL     1     -10.527  14.516  -9.393  1.00  0.00     0.132 A 
ATOM     15  C   UNL     1     -11.843  16.319  -8.755  1.00  0.00     0.054 A 
ATOM     16  C   UNL     1     -11.590  15.327  -9.653  1.00  0.00     0.062 A 
ATOM     17  N   UNL     1     -12.807  17.132  -8.888  1.00  0.00    -0.346 N 
ATOM     18  C   UNL     1     -12.428  15.249 -10.727  1.00  0.00     0.236 C 
ATOM     19  C   UNL     1     -13.528  16.980  -9.908  1.00  0.00     0.193 C 
ATOM     20  N   UNL     1     -13.378  16.099 -10.798  1.00  0.00    -0.246 NA
ATOM     21  H   UNL     1     -12.981  17.843  -8.230  1.00  0.00     0.167 HD
BRANCH  14  22
ATOM     22  O   UNL     1     -10.168  13.490 -10.247  1.00  0.00    -0.490 OA
BRANCH  22  23
ATOM     23  C   UNL     1      -9.794  12.212  -9.791  1.00  0.00     0.178 C 
ATOM     24  C   UNL     1     -10.945  11.430  -9.157  1.00  0.00     0.073 C 
ATOM     25  C   UNL     1      -9.293  11.459 -11.035  1.00  0.00     0.073 C 
ATOM     26  C   UNL     1     -10.593   9.953  -9.016  1.00  0.00     0.164 C 
ATOM     27  C   UNL     1      -9.057   9.982 -10.735  1.00  0.00     0.164 C 
ATOM     28  O   UNL     1     -10.241   9.400 -10.261  1.00  0.00    -0.381 OA
ENDBRANCH  22  23
ENDBRANCH  14  22
BRANCH  18  29
ATOM     29  N   UNL     1     -12.506  14.468 -11.740  1.00  0.00    -0.355 N 
ATOM     30  H   UNL     1     -11.593  13.981 -11.936  1.00  0.00     0.163 HD
BRANCH  29  31
ATOM     31  C   UNL     1     -13.390  14.106 -12.593  1.00  0.00     0.102 A 
ATOM     32  C   UNL     1     -13.661  14.767 -13.741  1.00  0.00     0.190 A 
ATOM     33  C   UNL     1     -14.133  12.985 -12.369  1.00  0.00     0.068 A 
ATOM     34  O   UNL     1     -13.127  15.795 -14.164  1.00  0.00    -0.451 OA
ATOM     35  C   UNL     1     -14.603  14.362 -14.602  1.00  0.00     0.168 A 
ATOM     36  C   UNL     1     -15.080  12.586 -13.240  1.00  0.00     0.027 A 
ATOM     37  C   UNL     1     -13.681  16.103 -15.443  1.00  0.00     0.468 C 
ATOM     38  O   UNL     1     -14.686  15.105 -15.579  1.00  0.00    -0.454 OA
ATOM     39  C   UNL     1     -15.328  13.265 -14.369  1.00  0.00     0.052 A 
ATOM     40  Cl  UNL     1     -13.968  11.974 -10.961  1.00  0.00    -0.082 Cl
ENDBRANCH  29  31
ENDBRANCH  18  29
ENDBRANCH   1  11
TORSDOF 8
ENDMDL
MODEL 9
REMARK VINA RESULT:    -8.601      2.551      3.906
REMARK INTER + INTRA:         -14.349
REMARK INTER:                 -12.122
REMARK INTRA:                  -2.227
REMARK UNBOUND:                -1.726
REMARK SMILES CN1CCN(CCOc2cc3c(c(OC4CCOCC4)c2)C(Nc2c(Cl)ccc4c2OCO4)N=CN3)CC1
REMARK SMILES IDX 8 1 7 2 6 3 5 4 2 5 3 6 38 7 4 8 37 9 1 10 9 11 21 12 10 13
REMARK SMILES IDX 13 14 11 15 12 16 36 17 22 18 35 19 34 20 14 22 15 23 16 24
REMARK SMILES IDX 20 25 17 26 19 27 18 28 23 29 24 31 30 32 25 33 31 34 29 35
REMARK SMILES IDX 27 36 32 37 33 38 28 39 26 40
REMARK H PARENT 36 21 23 30
ROOT
ATOM      1  O   UNL     1     -10.135  12.985  -6.478  1.00  0.00    -0.492 OA
ENDROOT
BRANCH   1   2
ATOM      2  C   UNL     1      -8.751  13.216  -6.372  1.00  0.00     0.245 C 
BRANCH   2   3
ATOM      3  C   UNL     1      -7.948  11.913  -6.216  1.00  0.00     0.126 C 
BRANCH   3   4
ATOM      4  N   UNL     1      -7.821  11.086  -7.411  1.00  0.00    -0.297 NA
ATOM      5  N   UNL     1      -6.987   8.594  -8.692  1.00  0.00    -0.304 NA
ATOM      6  C   UNL     1      -6.201   9.810  -8.806  1.00  0.00     0.099 C 
ATOM      7  C   UNL     1      -8.386   8.935  -8.514  1.00  0.00     0.099 C 
ATOM      8  C   UNL     1      -6.415  10.742  -7.604  1.00  0.00     0.100 C 
ATOM      9  C   UNL     1      -8.579   9.849  -7.289  1.00  0.00     0.100 C 
ATOM     10  C   UNL     1      -6.806   7.767  -9.872  1.00  0.00     0.105 C 
ENDBRANCH   3   4
ENDBRANCH   2   3
ENDBRANCH   1   2
BRANCH   1  11
ATOM     11  C   UNL     1     -10.713  13.351  -7.668  1.00  0.00     0.125 A 
ATOM     12  C   UNL     1     -10.805  12.498  -8.705  1.00  0.00     0.093 A 
ATOM     13  C   UNL     1     -11.234  14.567  -7.874  1.00  0.00     0.073 A 
ATOM     14  C   UNL     1     -11.373  12.783  -9.899  1.00  0.00     0.132 A 
ATOM     15  C   UNL     1     -11.800  14.898  -9.043  1.00  0.00     0.054 A 
ATOM     16  C   UNL     1     -11.890  14.028 -10.088  1.00  0.00     0.062 A 
ATOM     17  N   UNL     1     -12.249  16.082  -9.099  1.00  0.00    -0.346 N 
ATOM     18  C   UNL     1     -12.487  14.498 -11.221  1.00  0.00     0.236 C 
ATOM     19  C   UNL     1     -12.787  16.425 -10.184  1.00  0.00     0.193 C 
ATOM     20  N   UNL     1     -12.917  15.700 -11.209  1.00  0.00    -0.246 NA
ATOM     21  H   UNL     1     -12.181  16.700  -8.336  1.00  0.00     0.167 HD
BRANCH  14  22
ATOM     22  O   UNL     1     -11.392  11.827 -10.899  1.00  0.00    -0.490 OA
BRANCH  22  23
ATOM     23  C   UNL     1     -10.875  10.531 -10.726  1.00  0.00     0.178 C 
ATOM     24  C   UNL     1     -11.953   9.466 -10.519  1.00  0.00     0.073 C 
ATOM     25  C   UNL     1     -10.097  10.220 -12.016  1.00  0.00     0.073 C 
ATOM     26  C   UNL     1     -11.383   8.063 -10.701  1.00  0.00     0.164 C 
ATOM     27  C   UNL     1      -9.661   8.759 -12.066  1.00  0.00     0.164 C 
ATOM     28  O   UNL     1     -10.784   7.926 -11.966  1.00  0.00    -0.381 OA
ENDBRANCH  22  23
ENDBRANCH  14  22
BRANCH  18  29
ATOM     29  N   UNL     1     -12.752  13.985 -12.366  1.00  0.00    -0.355 N 
ATOM     30  H   UNL     1     -11.919  13.491 -12.781  1.00  0.00     0.163 HD
BRANCH  29  31
ATOM     31  C   UNL     1     -13.754  13.900 -13.158  1.00  0.00     0.102 A 
ATOM     32  C   UNL     1     -13.952  14.703 -14.229  1.00  0.00     0.190 A 
ATOM     33  C   UNL     1     -14.710  12.952 -12.947  1.00  0.00     0.068 A 
ATOM     34  O   UNL     1     -13.234  15.623 -14.625  1.00  0.00    -0.451 OA
ATOM     35  C   UNL     1     -15.021  14.589 -15.028  1.00  0.00     0.168 A 
ATOM     36  C   UNL     1     -15.784  12.846 -13.755  1.00  0.00     0.027 A 
ATOM     37  C   UNL     1     -13.797  16.155 -15.824  1.00  0.00     0.468 C 
ATOM     38  O   UNL     1     -15.007  15.416 -15.939  1.00  0.00    -0.454 OA
ATOM     39  C   UNL     1     -15.954  13.660 -14.807  1.00  0.00     0.052 A 
ATOM     40  Cl  UNL     1     -14.674  11.809 -11.634  1.00  0.00    -0.082 Cl
ENDBRANCH  29  31
ENDBRANCH  18  29
ENDBRANCH   1  11
TORSDOF 8
ENDMDL
MODEL 10
REMARK VINA RESULT:    -8.555      2.894      9.560
REMARK INTER + INTRA:         -14.281
REMARK INTER:                 -12.603
REMARK INTRA:                  -1.678
REMARK UNBOUND:                -1.726
REMARK SMILES CN1CCN(CCOc2cc3c(c(OC4CCOCC4)c2)C(Nc2c(Cl)ccc4c2OCO4)N=CN3)CC1
REMARK SMILES IDX 8 1 7 2 6 3 5 4 2 5 3 6 38 7 4 8 37 9 1 10 9 11 21 12 10 13
REMARK SMILES IDX 13 14 11 15 12 16 36 17 22 18 35 19 34 20 14 22 15 23 16 24
REMARK SMILES IDX 20 25 17 26 19 27 18 28 23 29 24 31 30 32 25 33 31 34 29 35
REMARK SMILES IDX 27 36 32 37 33 38 28 39 26 40
REMARK H PARENT 36 21 23 30
ROOT
ATOM      1  O   UNL     1     -12.953  14.282 -10.839  1.00  0.00    -0.492 OA
ENDROOT
BRANCH   1   2
ATOM      2  C   UNL     1     -13.130  15.190 -11.900  1.00  0.00     0.245 C 
BRANCH   2   3
ATOM      3  C   UNL     1     -14.596  15.626 -12.061  1.00  0.00     0.126 C 
BRANCH   3   4
ATOM      4  N   UNL     1     -15.199  15.394 -13.369  1.00  0.00    -0.297 NA
ATOM      5  N   UNL     1     -15.624  13.675 -15.695  1.00  0.00    -0.304 NA
ATOM      6  C   UNL     1     -14.697  14.792 -15.732  1.00  0.00     0.099 C 
ATOM      7  C   UNL     1     -16.684  13.954 -14.742  1.00  0.00     0.099 C 
ATOM      8  C   UNL     1     -14.142  15.118 -14.338  1.00  0.00     0.100 C 
ATOM      9  C   UNL     1     -16.103  14.254 -13.347  1.00  0.00     0.100 C 
ATOM     10  C   UNL     1     -16.174  13.435 -17.018  1.00  0.00     0.105 C 
ENDBRANCH   3   4
ENDBRANCH   2   3
ENDBRANCH   1   2
BRANCH   1  11
ATOM     11  C   UNL     1     -11.994  14.620  -9.916  1.00  0.00     0.125 A 
ATOM     12  C   UNL     1     -10.919  13.841  -9.693  1.00  0.00     0.093 A 
ATOM     13  C   UNL     1     -12.053  15.743  -9.191  1.00  0.00     0.073 A 
ATOM     14  C   UNL     1      -9.928  14.115  -8.813  1.00  0.00     0.132 A 
ATOM     15  C   UNL     1     -11.099  16.054  -8.301  1.00  0.00     0.054 A 
ATOM     16  C   UNL     1     -10.013  15.260  -8.081  1.00  0.00     0.062 A 
ATOM     17  N   UNL     1     -11.284  17.145  -7.684  1.00  0.00    -0.346 N 
ATOM     18  C   UNL     1      -9.121  15.695  -7.144  1.00  0.00     0.236 C 
ATOM     19  C   UNL     1     -10.406  17.466  -6.841  1.00  0.00     0.193 C 
ATOM     20  N   UNL     1      -9.369  16.803  -6.561  1.00  0.00    -0.246 NA
ATOM     21  H   UNL     1     -12.072  17.711  -7.854  1.00  0.00     0.167 HD
BRANCH  14  22
ATOM     22  O   UNL     1      -8.879  13.228  -8.657  1.00  0.00    -0.490 OA
BRANCH  22  23
ATOM     23  C   UNL     1      -9.049  11.831  -8.687  1.00  0.00     0.178 C 
ATOM     24  C   UNL     1      -7.954  11.101  -9.466  1.00  0.00     0.073 C 
ATOM     25  C   UNL     1      -9.016  11.378  -7.218  1.00  0.00     0.073 C 
ATOM     26  C   UNL     1      -7.973   9.605  -9.169  1.00  0.00     0.164 C 
ATOM     27  C   UNL     1      -8.968   9.858  -7.105  1.00  0.00     0.164 C 
ATOM     28  O   UNL     1      -7.847   9.366  -7.789  1.00  0.00    -0.381 OA
ENDBRANCH  22  23
ENDBRANCH  14  22
BRANCH  18  29
ATOM     29  N   UNL     1      -8.014  15.237  -6.690  1.00  0.00    -0.355 N 
ATOM     30  H   UNL     1      -7.424  14.801  -7.448  1.00  0.00     0.163 HD
BRANCH  29  31
ATOM     31  C   UNL     1      -7.412  15.155  -5.563  1.00  0.00     0.102 A 
ATOM     32  C   UNL     1      -7.899  14.506  -4.481  1.00  0.00     0.190 A 
ATOM     33  C   UNL     1      -6.196  15.750  -5.396  1.00  0.00     0.068 A 
ATOM     34  O   UNL     1      -8.965  13.893  -4.384  1.00  0.00    -0.451 OA
ATOM     35  C   UNL     1      -7.243  14.454  -3.315  1.00  0.00     0.168 A 
ATOM     36  C   UNL     1      -5.544  15.694  -4.218  1.00  0.00     0.027 A 
ATOM     37  C   UNL     1      -9.040  13.312  -3.083  1.00  0.00     0.468 C 
ATOM     38  O   UNL     1      -7.861  13.814  -2.465  1.00  0.00    -0.454 OA
ATOM     39  C   UNL     1      -6.055  15.045  -3.163  1.00  0.00     0.052 A 
ATOM     40  Cl  UNL     1      -5.373  16.645  -6.641  1.00  0.00    -0.082 Cl
ENDBRANCH  29  31
ENDBRANCH  18  29
ENDBRANCH   1  11
TORSDOF 8
ENDMDL
