MODEL 1
REMARK VINA RESULT:   -12.759      0.000      0.000
REMARK INTER + INTRA:         -18.338
REMARK INTER:                 -17.980
REMARK INTRA:                  -0.358
REMARK UNBOUND:                -0.358
REMARK SMILES Cc1ccc(NC(=O)c2ccc(CN3CCN(C)CC3)cc2)cc1Nc1nc(-c2cccnc2)cs1
REMARK SMILES IDX 6 1 7 2 8 3 5 5 2 6 3 7 24 8 4 9 23 10 1 11 25 12 26 14
REMARK SMILES IDX 27 15 36 16 28 17 35 18 29 19 30 20 34 21 31 22 33 23 32 24
REMARK SMILES IDX 9 25 10 26 22 27 11 28 21 29 12 30 13 31 14 32 15 33 20 34
REMARK SMILES IDX 16 35 19 36 17 37 18 38
REMARK H PARENT 6 4 25 13
ROOT
ATOM      1  N   UNL     1      24.256  26.069  40.072  1.00  0.00    -0.322 N 
ATOM      2  C   UNL     1      24.887  25.251  39.151  1.00  0.00     0.255 C 
ATOM      3  O   UNL     1      25.636  24.312  39.392  1.00  0.00    -0.269 OA
ATOM      4  H   UNL     1      23.555  26.702  39.710  1.00  0.00     0.170 HD
ENDROOT
BRANCH   1   5
ATOM      5  C   UNL     1      24.386  26.035  41.476  1.00  0.00     0.043 A 
ATOM      6  C   UNL     1      24.479  26.036  44.299  1.00  0.00    -0.027 A 
ATOM      7  C   UNL     1      23.444  26.691  43.618  1.00  0.00     0.008 A 
ATOM      8  C   UNL     1      25.493  25.403  43.557  1.00  0.00     0.045 A 
ATOM      9  C   UNL     1      23.399  26.688  42.222  1.00  0.00     0.026 A 
ATOM     10  C   UNL     1      25.433  25.407  42.151  1.00  0.00     0.052 A 
ATOM     11  C   UNL     1      24.496  26.058  45.803  1.00  0.00     0.046 C 
BRANCH   8  12
ATOM     12  N   UNL     1      26.579  24.770  44.208  1.00  0.00    -0.331 N 
ATOM     13  H   UNL     1      26.763  23.858  43.797  1.00  0.00     0.169 HD
BRANCH  12  14
ATOM     14  C   UNL     1      27.747  25.405  44.501  1.00  0.00     0.187 A 
ATOM     15  N   UNL     1      28.636  24.859  45.304  1.00  0.00    -0.220 NA
ATOM     16  S   UNL     1      28.201  26.964  43.909  1.00  0.00    -0.105 S 
ATOM     17  C   UNL     1      29.736  25.686  45.483  1.00  0.00     0.085 A 
ATOM     18  C   UNL     1      29.669  26.874  44.786  1.00  0.00     0.097 A 
BRANCH  17  19
ATOM     19  C   UNL     1      30.838  25.280  46.350  1.00  0.00     0.019 A 
ATOM     20  C   UNL     1      31.951  26.086  46.613  1.00  0.00     0.013 A 
ATOM     21  C   UNL     1      30.809  24.033  46.975  1.00  0.00     0.121 A 
ATOM     22  C   UNL     1      32.960  25.629  47.463  1.00  0.00     0.021 A 
ATOM     23  N   UNL     1      31.776  23.562  47.806  1.00  0.00    -0.264 NA
ATOM     24  C   UNL     1      32.828  24.373  48.030  1.00  0.00     0.111 A 
ENDBRANCH  17  19
ENDBRANCH  12  14
ENDBRANCH   8  12
ENDBRANCH   1   5
BRANCH   2  25
ATOM     25  C   UNL     1      24.550  25.545  37.730  1.00  0.00     0.040 A 
ATOM     26  C   UNL     1      23.365  26.232  37.452  1.00  0.00     0.014 A 
ATOM     27  C   UNL     1      25.381  25.137  36.679  1.00  0.00     0.014 A 
ATOM     28  C   UNL     1      23.029  26.541  36.133  1.00  0.00     0.006 A 
ATOM     29  C   UNL     1      25.040  25.444  35.359  1.00  0.00     0.006 A 
ATOM     30  C   UNL     1      23.868  26.160  35.074  1.00  0.00    -0.034 A 
BRANCH  30  31
ATOM     31  C   UNL     1      23.490  26.481  33.639  1.00  0.00     0.120 C 
BRANCH  31  32
ATOM     32  N   UNL     1      23.869  27.851  33.245  1.00  0.00    -0.297 NA
ATOM     33  C   UNL     1      22.948  28.833  33.846  1.00  0.00     0.100 C 
ATOM     34  C   UNL     1      23.867  28.015  31.771  1.00  0.00     0.100 C 
ATOM     35  C   UNL     1      21.497  28.821  33.292  1.00  0.00     0.099 C 
ATOM     36  C   UNL     1      22.583  28.628  31.145  1.00  0.00     0.099 C 
ATOM     37  N   UNL     1      21.377  28.301  31.916  1.00  0.00    -0.304 NA
ATOM     38  C   UNL     1      20.167  28.793  31.266  1.00  0.00     0.105 C 
ENDBRANCH  31  32
ENDBRANCH  30  31
ENDBRANCH   2  25
TORSDOF 7
ENDMDL
MODEL 2
REMARK VINA RESULT:   -11.933      2.818     12.725
REMARK INTER + INTRA:         -17.174
REMARK INTER:                 -16.447
REMARK INTRA:                  -0.727
REMARK UNBOUND:                -0.358
REMARK SMILES Cc1ccc(NC(=O)c2ccc(CN3CCN(C)CC3)cc2)cc1Nc1nc(-c2cccnc2)cs1
REMARK SMILES IDX 6 1 7 2 8 3 5 5 2 6 3 7 24 8 4 9 23 10 1 11 25 12 26 14
REMARK SMILES IDX 27 15 36 16 28 17 35 18 29 19 30 20 34 21 31 22 33 23 32 24
REMARK SMILES IDX 9 25 10 26 22 27 11 28 21 29 12 30 13 31 14 32 15 33 20 34
REMARK SMILES IDX 16 35 19 36 17 37 18 38
REMARK H PARENT 6 4 25 13
ROOT
ATOM      1  N   UNL     1      28.103  26.383  44.690  1.00  0.00    -0.322 N 
ATOM      2  C   UNL     1      28.725  25.284  45.254  1.00  0.00     0.255 C 
ATOM      3  O   UNL     1      28.326  24.125  45.242  1.00  0.00    -0.269 OA
ATOM      4  H   UNL     1      28.637  27.241  44.662  1.00  0.00     0.170 HD
ENDROOT
BRANCH   1   5
ATOM      5  C   UNL     1      26.855  26.417  44.034  1.00  0.00     0.043 A 
ATOM      6  C   UNL     1      24.276  26.484  42.883  1.00  0.00    -0.027 A 
ATOM      7  C   UNL     1      24.441  26.243  44.253  1.00  0.00     0.008 A 
ATOM      8  C   UNL     1      25.416  26.661  42.078  1.00  0.00     0.045 A 
ATOM      9  C   UNL     1      25.717  26.212  44.821  1.00  0.00     0.026 A 
ATOM     10  C   UNL     1      26.695  26.629  42.664  1.00  0.00     0.052 A 
ATOM     11  C   UNL     1      22.888  26.512  42.305  1.00  0.00     0.046 C 
BRANCH   8  12
ATOM     12  N   UNL     1      25.293  26.862  40.682  1.00  0.00    -0.331 N 
ATOM     13  H   UNL     1      25.881  27.633  40.376  1.00  0.00     0.169 HD
BRANCH  12  14
ATOM     14  C   UNL     1      25.328  25.847  39.775  1.00  0.00     0.187 A 
ATOM     15  N   UNL     1      25.349  26.089  38.482  1.00  0.00    -0.220 NA
ATOM     16  S   UNL     1      25.322  24.165  40.173  1.00  0.00    -0.105 S 
ATOM     17  C   UNL     1      25.358  24.915  37.743  1.00  0.00     0.085 A 
ATOM     18  C   UNL     1      25.355  23.766  38.508  1.00  0.00     0.097 A 
BRANCH  17  19
ATOM     19  C   UNL     1      25.367  24.953  36.284  1.00  0.00     0.019 A 
ATOM     20  C   UNL     1      26.167  24.120  35.495  1.00  0.00     0.013 A 
ATOM     21  C   UNL     1      24.540  25.849  35.606  1.00  0.00     0.121 A 
ATOM     22  C   UNL     1      26.110  24.211  34.102  1.00  0.00     0.021 A 
ATOM     23  N   UNL     1      24.464  25.961  34.254  1.00  0.00    -0.264 NA
ATOM     24  C   UNL     1      25.252  25.137  33.535  1.00  0.00     0.111 A 
ENDBRANCH  17  19
ENDBRANCH  12  14
ENDBRANCH   8  12
ENDBRANCH   1   5
BRANCH   2  25
ATOM     25  C   UNL     1      30.041  25.575  45.888  1.00  0.00     0.040 A 
ATOM     26  C   UNL     1      30.487  26.899  45.924  1.00  0.00     0.014 A 
ATOM     27  C   UNL     1      30.836  24.557  46.430  1.00  0.00     0.014 A 
ATOM     28  C   UNL     1      31.706  27.210  46.528  1.00  0.00     0.006 A 
ATOM     29  C   UNL     1      32.059  24.871  47.031  1.00  0.00     0.006 A 
ATOM     30  C   UNL     1      32.500  26.201  47.098  1.00  0.00    -0.034 A 
BRANCH  30  31
ATOM     31  C   UNL     1      33.834  26.540  47.738  1.00  0.00     0.120 C 
BRANCH  31  32
ATOM     32  N   UNL     1      34.938  26.586  46.762  1.00  0.00    -0.297 NA
ATOM     33  C   UNL     1      36.235  26.421  47.443  1.00  0.00     0.100 C 
ATOM     34  C   UNL     1      34.942  27.859  46.001  1.00  0.00     0.100 C 
ATOM     35  C   UNL     1      36.673  27.603  48.349  1.00  0.00     0.099 C 
ATOM     36  C   UNL     1      35.897  28.970  46.518  1.00  0.00     0.099 C 
ATOM     37  N   UNL     1      36.091  28.906  47.972  1.00  0.00    -0.304 NA
ATOM     38  C   UNL     1      36.905  30.013  48.461  1.00  0.00     0.105 C 
ENDBRANCH  31  32
ENDBRANCH  30  31
ENDBRANCH   2  25
TORSDOF 7
ENDMDL
MODEL 3
REMARK VINA RESULT:   -10.556      4.891     10.251
REMARK INTER + INTRA:         -15.234
REMARK INTER:                 -15.146
REMARK INTRA:                  -0.088
REMARK UNBOUND:                -0.358
REMARK SMILES Cc1ccc(NC(=O)c2ccc(CN3CCN(C)CC3)cc2)cc1Nc1nc(-c2cccnc2)cs1
REMARK SMILES IDX 6 1 7 2 8 3 5 5 2 6 3 7 24 8 4 9 23 10 1 11 25 12 26 14
REMARK SMILES IDX 27 15 36 16 28 17 35 18 29 19 30 20 34 21 31 22 33 23 32 24
REMARK SMILES IDX 9 25 10 26 22 27 11 28 21 29 12 30 13 31 14 32 15 33 20 34
REMARK SMILES IDX 16 35 19 36 17 37 18 38
REMARK H PARENT 6 4 25 13
ROOT
ATOM      1  N   UNL     1      32.144  26.039  46.922  1.00  0.00    -0.322 N 
ATOM      2  C   UNL     1      31.330  25.041  46.416  1.00  0.00     0.255 C 
ATOM      3  O   UNL     1      31.477  23.833  46.548  1.00  0.00    -0.269 OA
ATOM      4  H   UNL     1      31.800  26.986  46.847  1.00  0.00     0.170 HD
ENDROOT
BRANCH   1   5
ATOM      5  C   UNL     1      33.345  25.879  47.645  1.00  0.00     0.043 A 
ATOM      6  C   UNL     1      35.684  25.398  49.153  1.00  0.00    -0.027 A 
ATOM      7  C   UNL     1      34.548  24.595  49.320  1.00  0.00     0.008 A 
ATOM      8  C   UNL     1      35.634  26.471  48.245  1.00  0.00     0.045 A 
ATOM      9  C   UNL     1      33.393  24.832  48.572  1.00  0.00     0.026 A 
ATOM     10  C   UNL     1      34.464  26.698  47.497  1.00  0.00     0.052 A 
ATOM     11  C   UNL     1      36.912  25.113  49.974  1.00  0.00     0.046 C 
BRANCH   8  12
ATOM     12  N   UNL     1      36.745  27.333  48.081  1.00  0.00    -0.331 N 
ATOM     13  H   UNL     1      37.476  26.879  47.540  1.00  0.00     0.169 HD
BRANCH  12  14
ATOM     14  C   UNL     1      36.629  28.642  47.723  1.00  0.00     0.187 A 
ATOM     15  N   UNL     1      36.512  28.995  46.460  1.00  0.00    -0.220 NA
ATOM     16  S   UNL     1      36.645  29.973  48.824  1.00  0.00    -0.105 S 
ATOM     17  C   UNL     1      36.432  30.373  46.321  1.00  0.00     0.085 A 
ATOM     18  C   UNL     1      36.479  31.064  47.515  1.00  0.00     0.097 A 
BRANCH  17  19
ATOM     19  C   UNL     1      36.312  30.982  45.000  1.00  0.00     0.019 A 
ATOM     20  C   UNL     1      35.393  30.558  44.035  1.00  0.00     0.013 A 
ATOM     21  C   UNL     1      37.134  32.053  44.651  1.00  0.00     0.121 A 
ATOM     22  C   UNL     1      35.333  31.201  42.797  1.00  0.00     0.021 A 
ATOM     23  N   UNL     1      37.100  32.697  43.455  1.00  0.00    -0.264 NA
ATOM     24  C   UNL     1      36.198  32.254  42.557  1.00  0.00     0.111 A 
ENDBRANCH  17  19
ENDBRANCH  12  14
ENDBRANCH   8  12
ENDBRANCH   1   5
BRANCH   2  25
ATOM     25  C   UNL     1      30.130  25.535  45.683  1.00  0.00     0.040 A 
ATOM     26  C   UNL     1      28.969  24.756  45.700  1.00  0.00     0.014 A 
ATOM     27  C   UNL     1      30.148  26.743  44.974  1.00  0.00     0.014 A 
ATOM     28  C   UNL     1      27.822  25.198  45.040  1.00  0.00     0.006 A 
ATOM     29  C   UNL     1      28.998  27.181  44.311  1.00  0.00     0.006 A 
ATOM     30  C   UNL     1      27.820  26.420  44.348  1.00  0.00    -0.034 A 
BRANCH  30  31
ATOM     31  C   UNL     1      26.576  26.889  43.616  1.00  0.00     0.120 C 
BRANCH  31  32
ATOM     32  N   UNL     1      25.517  25.863  43.579  1.00  0.00    -0.297 NA
ATOM     33  C   UNL     1      25.928  24.729  42.730  1.00  0.00     0.100 C 
ATOM     34  C   UNL     1      24.238  26.416  43.073  1.00  0.00     0.100 C 
ATOM     35  C   UNL     1      26.020  25.029  41.209  1.00  0.00     0.099 C 
ATOM     36  C   UNL     1      23.938  26.195  41.564  1.00  0.00     0.099 C 
ATOM     37  N   UNL     1      25.162  26.140  40.755  1.00  0.00    -0.304 NA
ATOM     38  C   UNL     1      24.868  26.036  39.330  1.00  0.00     0.105 C 
ENDBRANCH  31  32
ENDBRANCH  30  31
ENDBRANCH   2  25
TORSDOF 7
ENDMDL
MODEL 4
REMARK VINA RESULT:   -10.276      3.657     11.888
REMARK INTER + INTRA:         -14.839
REMARK INTER:                 -14.536
REMARK INTRA:                  -0.303
REMARK UNBOUND:                -0.358
REMARK SMILES Cc1ccc(NC(=O)c2ccc(CN3CCN(C)CC3)cc2)cc1Nc1nc(-c2cccnc2)cs1
REMARK SMILES IDX 6 1 7 2 8 3 5 5 2 6 3 7 24 8 4 9 23 10 1 11 25 12 26 14
REMARK SMILES IDX 27 15 36 16 28 17 35 18 29 19 30 20 34 21 31 22 33 23 32 24
REMARK SMILES IDX 9 25 10 26 22 27 11 28 21 29 12 30 13 31 14 32 15 33 20 34
REMARK SMILES IDX 16 35 19 36 17 37 18 38
REMARK H PARENT 6 4 25 13
ROOT
ATOM      1  N   UNL     1      23.647  26.195  35.118  1.00  0.00    -0.322 N 
ATOM      2  C   UNL     1      24.659  25.314  35.454  1.00  0.00     0.255 C 
ATOM      3  O   UNL     1      25.383  24.695  34.684  1.00  0.00    -0.269 OA
ATOM      4  H   UNL     1      23.245  26.734  35.873  1.00  0.00     0.170 HD
ENDROOT
BRANCH   1   5
ATOM      5  C   UNL     1      23.194  26.523  33.823  1.00  0.00     0.043 A 
ATOM      6  C   UNL     1      22.306  27.004  31.185  1.00  0.00    -0.027 A 
ATOM      7  C   UNL     1      22.868  25.770  31.535  1.00  0.00     0.008 A 
ATOM      8  C   UNL     1      22.218  28.017  32.158  1.00  0.00     0.045 A 
ATOM      9  C   UNL     1      23.305  25.533  32.841  1.00  0.00     0.026 A 
ATOM     10  C   UNL     1      22.660  27.763  33.469  1.00  0.00     0.052 A 
ATOM     11  C   UNL     1      21.843  27.225  29.771  1.00  0.00     0.046 C 
BRANCH   8  12
ATOM     12  N   UNL     1      21.698  29.292  31.831  1.00  0.00    -0.331 N 
ATOM     13  H   UNL     1      21.135  29.246  30.986  1.00  0.00     0.169 HD
BRANCH  12  14
ATOM     14  C   UNL     1      21.119  30.119  32.744  1.00  0.00     0.187 A 
ATOM     15  N   UNL     1      21.790  30.555  33.790  1.00  0.00    -0.220 NA
ATOM     16  S   UNL     1      19.484  30.674  32.681  1.00  0.00    -0.105 S 
ATOM     17  C   UNL     1      21.004  31.363  34.600  1.00  0.00     0.085 A 
ATOM     18  C   UNL     1      19.716  31.543  34.138  1.00  0.00     0.097 A 
BRANCH  17  19
ATOM     19  C   UNL     1      21.547  31.942  35.825  1.00  0.00     0.019 A 
ATOM     20  C   UNL     1      20.993  33.057  36.463  1.00  0.00     0.013 A 
ATOM     21  C   UNL     1      22.671  31.374  36.424  1.00  0.00     0.121 A 
ATOM     22  C   UNL     1      21.566  33.545  37.639  1.00  0.00     0.021 A 
ATOM     23  N   UNL     1      23.250  31.827  37.567  1.00  0.00    -0.264 NA
ATOM     24  C   UNL     1      22.682  32.903  38.147  1.00  0.00     0.111 A 
ENDBRANCH  17  19
ENDBRANCH  12  14
ENDBRANCH   8  12
ENDBRANCH   1   5
BRANCH   2  25
ATOM     25  C   UNL     1      24.894  25.173  36.919  1.00  0.00     0.040 A 
ATOM     26  C   UNL     1      24.394  26.159  37.774  1.00  0.00     0.014 A 
ATOM     27  C   UNL     1      25.611  24.091  37.446  1.00  0.00     0.014 A 
ATOM     28  C   UNL     1      24.580  26.047  39.153  1.00  0.00     0.006 A 
ATOM     29  C   UNL     1      25.799  23.984  38.827  1.00  0.00     0.006 A 
ATOM     30  C   UNL     1      25.274  24.954  39.695  1.00  0.00    -0.034 A 
BRANCH  30  31
ATOM     31  C   UNL     1      25.490  24.845  41.194  1.00  0.00     0.120 C 
BRANCH  31  32
ATOM     32  N   UNL     1      25.450  26.155  41.871  1.00  0.00    -0.297 NA
ATOM     33  C   UNL     1      26.794  26.762  41.898  1.00  0.00     0.100 C 
ATOM     34  C   UNL     1      24.937  26.038  43.257  1.00  0.00     0.100 C 
ATOM     35  C   UNL     1      27.832  26.055  42.812  1.00  0.00     0.099 C 
ATOM     36  C   UNL     1      26.003  25.946  44.383  1.00  0.00     0.099 C 
ATOM     37  N   UNL     1      27.239  25.295  43.929  1.00  0.00    -0.304 NA
ATOM     38  C   UNL     1      28.194  25.121  45.019  1.00  0.00     0.105 C 
ENDBRANCH  31  32
ENDBRANCH  30  31
ENDBRANCH   2  25
TORSDOF 7
ENDMDL
MODEL 5
REMARK VINA RESULT:   -10.081      3.763     12.349
REMARK INTER + INTRA:         -14.564
REMARK INTER:                 -13.888
REMARK INTRA:                  -0.675
REMARK UNBOUND:                -0.358
REMARK SMILES Cc1ccc(NC(=O)c2ccc(CN3CCN(C)CC3)cc2)cc1Nc1nc(-c2cccnc2)cs1
REMARK SMILES IDX 6 1 7 2 8 3 5 5 2 6 3 7 24 8 4 9 23 10 1 11 25 12 26 14
REMARK SMILES IDX 27 15 36 16 28 17 35 18 29 19 30 20 34 21 31 22 33 23 32 24
REMARK SMILES IDX 9 25 10 26 22 27 11 28 21 29 12 30 13 31 14 32 15 33 20 34
REMARK SMILES IDX 16 35 19 36 17 37 18 38
REMARK H PARENT 6 4 25 13
ROOT
ATOM      1  N   UNL     1      23.655  26.233  35.036  1.00  0.00    -0.322 N 
ATOM      2  C   UNL     1      24.605  25.291  35.388  1.00  0.00     0.255 C 
ATOM      3  O   UNL     1      25.276  24.602  34.629  1.00  0.00    -0.269 OA
ATOM      4  H   UNL     1      23.299  26.818  35.779  1.00  0.00     0.170 HD
ENDROOT
BRANCH   1   5
ATOM      5  C   UNL     1      23.214  26.557  33.736  1.00  0.00     0.043 A 
ATOM      6  C   UNL     1      22.332  27.030  31.094  1.00  0.00    -0.027 A 
ATOM      7  C   UNL     1      22.791  25.763  31.478  1.00  0.00     0.008 A 
ATOM      8  C   UNL     1      22.346  28.076  32.034  1.00  0.00     0.045 A 
ATOM      9  C   UNL     1      23.225  25.531  32.786  1.00  0.00     0.026 A 
ATOM     10  C   UNL     1      22.784  27.827  33.348  1.00  0.00     0.052 A 
ATOM     11  C   UNL     1      21.871  27.245  29.679  1.00  0.00     0.046 C 
BRANCH   8  12
ATOM     12  N   UNL     1      21.933  29.381  31.672  1.00  0.00    -0.331 N 
ATOM     13  H   UNL     1      20.919  29.433  31.606  1.00  0.00     0.169 HD
BRANCH  12  14
ATOM     14  C   UNL     1      22.431  30.509  32.248  1.00  0.00     0.187 A 
ATOM     15  N   UNL     1      23.597  31.001  31.885  1.00  0.00    -0.220 NA
ATOM     16  S   UNL     1      21.652  31.407  33.502  1.00  0.00    -0.105 S 
ATOM     17  C   UNL     1      23.921  32.136  32.615  1.00  0.00     0.085 A 
ATOM     18  C   UNL     1      22.964  32.506  33.537  1.00  0.00     0.097 A 
BRANCH  17  19
ATOM     19  C   UNL     1      25.182  32.835  32.384  1.00  0.00     0.019 A 
ATOM     20  C   UNL     1      25.298  33.970  31.575  1.00  0.00     0.013 A 
ATOM     21  C   UNL     1      26.351  32.381  32.994  1.00  0.00     0.121 A 
ATOM     22  C   UNL     1      26.540  34.588  31.413  1.00  0.00     0.021 A 
ATOM     23  N   UNL     1      27.572  32.960  32.854  1.00  0.00    -0.264 NA
ATOM     24  C   UNL     1      27.636  34.052  32.066  1.00  0.00     0.111 A 
ENDBRANCH  17  19
ENDBRANCH  12  14
ENDBRANCH   8  12
ENDBRANCH   1   5
BRANCH   2  25
ATOM     25  C   UNL     1      24.844  25.173  36.854  1.00  0.00     0.040 A 
ATOM     26  C   UNL     1      24.318  26.154  37.699  1.00  0.00     0.014 A 
ATOM     27  C   UNL     1      25.590  24.117  37.393  1.00  0.00     0.014 A 
ATOM     28  C   UNL     1      24.506  26.063  39.079  1.00  0.00     0.006 A 
ATOM     29  C   UNL     1      25.781  24.031  38.775  1.00  0.00     0.006 A 
ATOM     30  C   UNL     1      25.230  24.995  39.632  1.00  0.00    -0.034 A 
BRANCH  30  31
ATOM     31  C   UNL     1      25.449  24.909  41.132  1.00  0.00     0.120 C 
BRANCH  31  32
ATOM     32  N   UNL     1      25.425  26.230  41.787  1.00  0.00    -0.297 NA
ATOM     33  C   UNL     1      26.784  26.799  41.849  1.00  0.00     0.100 C 
ATOM     34  C   UNL     1      24.864  26.150  43.158  1.00  0.00     0.100 C 
ATOM     35  C   UNL     1      27.771  26.078  42.807  1.00  0.00     0.099 C 
ATOM     36  C   UNL     1      25.891  26.046  44.320  1.00  0.00     0.099 C 
ATOM     37  N   UNL     1      27.121  25.353  43.916  1.00  0.00    -0.304 NA
ATOM     38  C   UNL     1      28.035  25.170  45.038  1.00  0.00     0.105 C 
ENDBRANCH  31  32
ENDBRANCH  30  31
ENDBRANCH   2  25
TORSDOF 7
ENDMDL
MODEL 6
REMARK VINA RESULT:   -10.039      5.989     13.181
REMARK INTER + INTRA:         -14.505
REMARK INTER:                 -14.625
REMARK INTRA:                   0.120
REMARK UNBOUND:                -0.358
REMARK SMILES Cc1ccc(NC(=O)c2ccc(CN3CCN(C)CC3)cc2)cc1Nc1nc(-c2cccnc2)cs1
REMARK SMILES IDX 6 1 7 2 8 3 5 5 2 6 3 7 24 8 4 9 23 10 1 11 25 12 26 14
REMARK SMILES IDX 27 15 36 16 28 17 35 18 29 19 30 20 34 21 31 22 33 23 32 24
REMARK SMILES IDX 9 25 10 26 22 27 11 28 21 29 12 30 13 31 14 32 15 33 20 34
REMARK SMILES IDX 16 35 19 36 17 37 18 38
REMARK H PARENT 6 4 25 13
ROOT
ATOM      1  N   UNL     1      33.405  27.578  46.495  1.00  0.00    -0.322 N 
ATOM      2  C   UNL     1      34.788  27.586  46.537  1.00  0.00     0.255 C 
ATOM      3  O   UNL     1      35.528  26.614  46.625  1.00  0.00    -0.269 OA
ATOM      4  H   UNL     1      32.954  28.454  46.272  1.00  0.00     0.170 HD
ENDROOT
BRANCH   1   5
ATOM      5  C   UNL     1      32.553  26.459  46.605  1.00  0.00     0.043 A 
ATOM      6  C   UNL     1      30.986  24.127  46.895  1.00  0.00    -0.027 A 
ATOM      7  C   UNL     1      32.374  24.083  47.080  1.00  0.00     0.008 A 
ATOM      8  C   UNL     1      30.383  25.345  46.530  1.00  0.00     0.045 A 
ATOM      9  C   UNL     1      33.147  25.237  46.938  1.00  0.00     0.026 A 
ATOM     10  C   UNL     1      31.175  26.500  46.392  1.00  0.00     0.052 A 
ATOM     11  C   UNL     1      30.184  22.866  47.058  1.00  0.00     0.046 C 
BRANCH   8  12
ATOM     12  N   UNL     1      28.990  25.420  46.289  1.00  0.00    -0.331 N 
ATOM     13  H   UNL     1      28.513  25.857  47.074  1.00  0.00     0.169 HD
BRANCH  12  14
ATOM     14  C   UNL     1      28.458  25.844  45.111  1.00  0.00     0.187 A 
ATOM     15  N   UNL     1      27.157  25.840  44.910  1.00  0.00    -0.220 NA
ATOM     16  S   UNL     1      29.373  26.402  43.755  1.00  0.00    -0.105 S 
ATOM     17  C   UNL     1      26.835  26.287  43.637  1.00  0.00     0.085 A 
ATOM     18  C   UNL     1      27.926  26.647  42.872  1.00  0.00     0.097 A 
BRANCH  17  19
ATOM     19  C   UNL     1      25.444  26.348  43.198  1.00  0.00     0.019 A 
ATOM     20  C   UNL     1      24.362  26.461  44.078  1.00  0.00     0.013 A 
ATOM     21  C   UNL     1      25.141  26.305  41.838  1.00  0.00     0.121 A 
ATOM     22  C   UNL     1      23.059  26.525  43.578  1.00  0.00     0.021 A 
ATOM     23  N   UNL     1      23.885  26.364  41.323  1.00  0.00    -0.264 NA
ATOM     24  C   UNL     1      22.874  26.473  42.207  1.00  0.00     0.111 A 
ENDBRANCH  17  19
ENDBRANCH  12  14
ENDBRANCH   8  12
ENDBRANCH   1   5
BRANCH   2  25
ATOM     25  C   UNL     1      35.403  28.937  46.405  1.00  0.00     0.040 A 
ATOM     26  C   UNL     1      35.899  29.561  47.553  1.00  0.00     0.014 A 
ATOM     27  C   UNL     1      35.479  29.591  45.168  1.00  0.00     0.014 A 
ATOM     28  C   UNL     1      36.498  30.818  47.461  1.00  0.00     0.006 A 
ATOM     29  C   UNL     1      36.076  30.852  45.080  1.00  0.00     0.006 A 
ATOM     30  C   UNL     1      36.603  31.472  46.223  1.00  0.00    -0.034 A 
BRANCH  30  31
ATOM     31  C   UNL     1      37.240  32.847  46.130  1.00  0.00     0.120 C 
BRANCH  31  32
ATOM     32  N   UNL     1      36.408  33.901  46.741  1.00  0.00    -0.297 NA
ATOM     33  C   UNL     1      35.081  33.946  46.102  1.00  0.00     0.100 C 
ATOM     34  C   UNL     1      37.050  35.234  46.634  1.00  0.00     0.100 C 
ATOM     35  C   UNL     1      35.060  34.451  44.633  1.00  0.00     0.099 C 
ATOM     36  C   UNL     1      36.591  36.128  45.449  1.00  0.00     0.099 C 
ATOM     37  N   UNL     1      36.184  35.338  44.280  1.00  0.00    -0.304 NA
ATOM     38  C   UNL     1      35.854  36.186  43.139  1.00  0.00     0.105 C 
ENDBRANCH  31  32
ENDBRANCH  30  31
ENDBRANCH   2  25
TORSDOF 7
ENDMDL
