MODEL 1
REMARK VINA RESULT:    -9.488      0.000      0.000
REMARK INTER + INTRA:         -11.496
REMARK INTER:                 -11.152
REMARK INTRA:                  -0.344
REMARK UNBOUND:                -0.344
REMARK SMILES CN1C(N)=N[C@](C)(c2cc(NC(=O)c3ccc(F)cn3)ccc2F)CS1(=O)=O
REMARK SMILES IDX 8 1 9 2 10 3 21 4 22 5 23 6 24 7 6 8 25 9 5 10 26 11 3 12
REMARK SMILES IDX 27 13 2 14 28 15 4 16 7 17 1 18 11 21 12 22 13 23 14 25
REMARK SMILES IDX 20 26 15 27 19 28 16 29 17 30 18 31
REMARK H PARENT 4 19 4 20 11 24
ROOT
ATOM      1  C   UNL     1      22.907  10.489  20.589  1.00  0.00     0.018 A 
ATOM      2  C   UNL     1      24.188  10.104  20.982  1.00  0.00     0.035 A 
ATOM      3  C   UNL     1      25.313  10.458  20.274  1.00  0.00     0.042 A 
ATOM      4  C   UNL     1      25.204  11.208  19.109  1.00  0.00     0.029 A 
ATOM      5  C   UNL     1      23.941  11.602  18.705  1.00  0.00     0.042 A 
ATOM      6  C   UNL     1      22.823  11.266  19.444  1.00  0.00     0.129 A 
ATOM      7  F   UNL     1      21.598  11.690  19.042  1.00  0.00    -0.207 F 
ENDROOT
BRANCH   1   8
ATOM      8  C   UNL     1      21.683  10.083  21.395  1.00  0.00     0.105 C 
ATOM      9  C   UNL     1      20.802  11.229  21.841  1.00  0.00     0.195 C 
ATOM     10  N   UNL     1      22.032   9.243  22.539  1.00  0.00    -0.240 NA
ATOM     11  S   UNL     1      21.678  12.296  22.956  1.00  0.00     0.239 S 
ATOM     12  C   UNL     1      22.464   9.752  23.652  1.00  0.00     0.205 C 
ATOM     13  O   UNL     1      20.680  12.910  23.813  1.00  0.00    -0.206 OA
ATOM     14  N   UNL     1      22.526  11.140  23.909  1.00  0.00    -0.243 N 
ATOM     15  O   UNL     1      22.717  13.017  22.289  1.00  0.00    -0.206 OA
ATOM     16  N   UNL     1      22.878   8.974  24.699  1.00  0.00    -0.369 N 
ATOM     17  C   UNL     1      20.814   9.156  20.541  1.00  0.00     0.044 C 
ATOM     18  C   UNL     1      23.134  11.705  25.130  1.00  0.00     0.167 C 
ATOM     19  H   UNL     1      22.871   7.993  24.616  1.00  0.00     0.159 HD
ATOM     20  H   UNL     1      23.182   9.395  25.535  1.00  0.00     0.159 HD
ENDBRANCH   1   8
BRANCH   3  21
ATOM     21  N   UNL     1      26.540  10.004  20.776  1.00  0.00    -0.321 N 
ATOM     22  C   UNL     1      27.644  10.751  21.146  1.00  0.00     0.274 C 
ATOM     23  O   UNL     1      27.772  11.955  20.968  1.00  0.00    -0.267 OA
ATOM     24  H   UNL     1      26.627   9.029  20.879  1.00  0.00     0.170 HD
BRANCH  22  25
ATOM     25  C   UNL     1      28.715   9.996  21.840  1.00  0.00     0.128 A 
ATOM     26  N   UNL     1      29.709  10.722  22.363  1.00  0.00    -0.248 NA
ATOM     27  C   UNL     1      28.644   8.617  21.926  1.00  0.00     0.037 A 
ATOM     28  C   UNL     1      30.693  10.060  22.994  1.00  0.00     0.151 A 
ATOM     29  C   UNL     1      29.670   7.963  22.587  1.00  0.00     0.043 A 
ATOM     30  C   UNL     1      30.714   8.690  23.126  1.00  0.00     0.141 A 
ATOM     31  F   UNL     1      31.726   8.101  23.784  1.00  0.00    -0.205 F 
ENDBRANCH  22  25
ENDBRANCH   3  21
TORSDOF 3
ENDMDL
MODEL 2
REMARK VINA RESULT:    -8.524      4.791      7.433
REMARK INTER + INTRA:         -10.363
REMARK INTER:                  -9.960
REMARK INTRA:                  -0.402
REMARK UNBOUND:                -0.344
REMARK SMILES CN1C(N)=N[C@](C)(c2cc(NC(=O)c3ccc(F)cn3)ccc2F)CS1(=O)=O
REMARK SMILES IDX 8 1 9 2 10 3 21 4 22 5 23 6 24 7 6 8 25 9 5 10 26 11 3 12
REMARK SMILES IDX 27 13 2 14 28 15 4 16 7 17 1 18 11 21 12 22 13 23 14 25
REMARK SMILES IDX 20 26 15 27 19 28 16 29 17 30 18 31
REMARK H PARENT 4 19 4 20 11 24
ROOT
ATOM      1  C   UNL     1      20.672  12.381  26.739  1.00  0.00     0.018 A 
ATOM      2  C   UNL     1      21.067  12.698  25.440  1.00  0.00     0.035 A 
ATOM      3  C   UNL     1      21.435  11.737  24.527  1.00  0.00     0.042 A 
ATOM      4  C   UNL     1      21.447  10.394  24.884  1.00  0.00     0.029 A 
ATOM      5  C   UNL     1      21.054  10.060  26.168  1.00  0.00     0.042 A 
ATOM      6  C   UNL     1      20.656  11.033  27.064  1.00  0.00     0.129 A 
ATOM      7  F   UNL     1      20.248  10.676  28.309  1.00  0.00    -0.207 F 
ENDROOT
BRANCH   1   8
ATOM      8  C   UNL     1      20.267  13.466  27.724  1.00  0.00     0.105 C 
ATOM      9  C   UNL     1      18.964  13.218  28.451  1.00  0.00     0.195 C 
ATOM     10  N   UNL     1      20.253  14.791  27.105  1.00  0.00    -0.240 NA
ATOM     11  S   UNL     1      17.605  13.188  27.309  1.00  0.00     0.239 S 
ATOM     12  C   UNL     1      19.244  15.203  26.401  1.00  0.00     0.205 C 
ATOM     13  O   UNL     1      16.431  13.609  28.052  1.00  0.00    -0.206 OA
ATOM     14  N   UNL     1      18.037  14.484  26.261  1.00  0.00    -0.243 N 
ATOM     15  O   UNL     1      17.651  12.035  26.465  1.00  0.00    -0.206 OA
ATOM     16  N   UNL     1      19.254  16.405  25.744  1.00  0.00    -0.369 N 
ATOM     17  C   UNL     1      21.358  13.597  28.790  1.00  0.00     0.044 C 
ATOM     18  C   UNL     1      16.948  14.906  25.358  1.00  0.00     0.167 C 
ATOM     19  H   UNL     1      20.052  16.980  25.782  1.00  0.00     0.159 HD
ATOM     20  H   UNL     1      18.463  16.694  25.234  1.00  0.00     0.159 HD
ENDBRANCH   1   8
BRANCH   3  21
ATOM     21  N   UNL     1      21.814  12.190  23.256  1.00  0.00    -0.321 N 
ATOM     22  C   UNL     1      23.085  12.480  22.793  1.00  0.00     0.274 C 
ATOM     23  O   UNL     1      24.096  12.508  23.482  1.00  0.00    -0.267 OA
ATOM     24  H   UNL     1      21.081  12.318  22.610  1.00  0.00     0.170 HD
BRANCH  22  25
ATOM     25  C   UNL     1      23.184  12.736  21.335  1.00  0.00     0.128 A 
ATOM     26  N   UNL     1      24.419  12.879  20.842  1.00  0.00    -0.248 NA
ATOM     27  C   UNL     1      22.036  12.805  20.566  1.00  0.00     0.037 A 
ATOM     28  C   UNL     1      24.534  13.116  19.524  1.00  0.00     0.151 A 
ATOM     29  C   UNL     1      22.187  13.044  19.211  1.00  0.00     0.043 A 
ATOM     30  C   UNL     1      23.452  13.207  18.679  1.00  0.00     0.141 A 
ATOM     31  F   UNL     1      23.649  13.432  17.368  1.00  0.00    -0.205 F 
ENDBRANCH  22  25
ENDBRANCH   3  21
TORSDOF 3
ENDMDL
MODEL 3
REMARK VINA RESULT:    -8.347      3.378      6.963
REMARK INTER + INTRA:         -10.154
REMARK INTER:                  -9.738
REMARK INTRA:                  -0.416
REMARK UNBOUND:                -0.344
REMARK SMILES CN1C(N)=N[C@](C)(c2cc(NC(=O)c3ccc(F)cn3)ccc2F)CS1(=O)=O
REMARK SMILES IDX 8 1 9 2 10 3 21 4 22 5 23 6 24 7 6 8 25 9 5 10 26 11 3 12
REMARK SMILES IDX 27 13 2 14 28 15 4 16 7 17 1 18 11 21 12 22 13 23 14 25
REMARK SMILES IDX 20 26 15 27 19 28 16 29 17 30 18 31
REMARK H PARENT 4 19 4 20 11 24
ROOT
ATOM      1  C   UNL     1      24.048  12.365  19.981  1.00  0.00     0.018 A 
ATOM      2  C   UNL     1      23.563  12.614  21.264  1.00  0.00     0.035 A 
ATOM      3  C   UNL     1      22.449  11.979  21.767  1.00  0.00     0.042 A 
ATOM      4  C   UNL     1      21.748  11.068  20.987  1.00  0.00     0.029 A 
ATOM      5  C   UNL     1      22.217  10.805  19.713  1.00  0.00     0.042 A 
ATOM      6  C   UNL     1      23.354  11.426  19.233  1.00  0.00     0.129 A 
ATOM      7  F   UNL     1      23.810  11.129  17.990  1.00  0.00    -0.207 F 
ENDROOT
BRANCH   1   8
ATOM      8  C   UNL     1      25.283  13.080  19.456  1.00  0.00     0.105 C 
ATOM      9  C   UNL     1      26.404  12.173  19.002  1.00  0.00     0.195 C 
ATOM     10  N   UNL     1      25.789  14.069  20.406  1.00  0.00    -0.240 NA
ATOM     11  S   UNL     1      27.039  11.230  20.366  1.00  0.00     0.239 S 
ATOM     12  C   UNL     1      26.543  13.730  21.406  1.00  0.00     0.205 C 
ATOM     13  O   UNL     1      28.426  10.934  20.055  1.00  0.00    -0.206 OA
ATOM     14  N   UNL     1      27.038  12.422  21.609  1.00  0.00    -0.243 N 
ATOM     15  O   UNL     1      26.093  10.260  20.822  1.00  0.00    -0.206 OA
ATOM     16  N   UNL     1      26.952  14.631  22.352  1.00  0.00    -0.369 N 
ATOM     17  C   UNL     1      24.883  13.936  18.251  1.00  0.00     0.044 C 
ATOM     18  C   UNL     1      27.790  12.024  22.815  1.00  0.00     0.167 C 
ATOM     19  H   UNL     1      26.659  15.569  22.297  1.00  0.00     0.159 HD
ATOM     20  H   UNL     1      27.539  14.341  23.088  1.00  0.00     0.159 HD
ENDBRANCH   1   8
BRANCH   3  21
ATOM     21  N   UNL     1      22.065  12.322  23.070  1.00  0.00    -0.321 N 
ATOM     22  C   UNL     1      22.332  11.647  24.248  1.00  0.00     0.274 C 
ATOM     23  O   UNL     1      22.853  10.542  24.324  1.00  0.00    -0.267 OA
ATOM     24  H   UNL     1      21.539  13.150  23.158  1.00  0.00     0.170 HD
BRANCH  22  25
ATOM     25  C   UNL     1      21.972  12.374  25.489  1.00  0.00     0.128 A 
ATOM     26  N   UNL     1      22.969  12.612  26.347  1.00  0.00    -0.248 NA
ATOM     27  C   UNL     1      20.664  12.774  25.701  1.00  0.00     0.037 A 
ATOM     28  C   UNL     1      22.666  13.265  27.481  1.00  0.00     0.151 A 
ATOM     29  C   UNL     1      20.384  13.450  26.876  1.00  0.00     0.043 A 
ATOM     30  C   UNL     1      21.395  13.698  27.784  1.00  0.00     0.141 A 
ATOM     31  F   UNL     1      21.173  14.359  28.933  1.00  0.00    -0.205 F 
ENDBRANCH  22  25
ENDBRANCH   3  21
TORSDOF 3
ENDMDL
MODEL 4
REMARK VINA RESULT:    -8.225      3.572      7.227
REMARK INTER + INTRA:         -10.012
REMARK INTER:                  -9.718
REMARK INTRA:                  -0.294
REMARK UNBOUND:                -0.344
REMARK SMILES CN1C(N)=N[C@](C)(c2cc(NC(=O)c3ccc(F)cn3)ccc2F)CS1(=O)=O
REMARK SMILES IDX 8 1 9 2 10 3 21 4 22 5 23 6 24 7 6 8 25 9 5 10 26 11 3 12
REMARK SMILES IDX 27 13 2 14 28 15 4 16 7 17 1 18 11 21 12 22 13 23 14 25
REMARK SMILES IDX 20 26 15 27 19 28 16 29 17 30 18 31
REMARK H PARENT 4 19 4 20 11 24
ROOT
ATOM      1  C   UNL     1      22.374  11.834  20.741  1.00  0.00     0.018 A 
ATOM      2  C   UNL     1      22.347  12.230  22.077  1.00  0.00     0.035 A 
ATOM      3  C   UNL     1      21.567  11.597  23.017  1.00  0.00     0.042 A 
ATOM      4  C   UNL     1      20.748  10.535  22.652  1.00  0.00     0.029 A 
ATOM      5  C   UNL     1      20.764  10.126  21.330  1.00  0.00     0.042 A 
ATOM      6  C   UNL     1      21.577  10.751  20.405  1.00  0.00     0.129 A 
ATOM      7  F   UNL     1      21.596  10.311  19.120  1.00  0.00    -0.207 F 
ENDROOT
BRANCH   1   8
ATOM      8  C   UNL     1      23.250  12.553  19.726  1.00  0.00     0.105 C 
ATOM      9  C   UNL     1      24.058  11.648  18.823  1.00  0.00     0.195 C 
ATOM     10  N   UNL     1      24.122  13.542  20.357  1.00  0.00    -0.240 NA
ATOM     11  S   UNL     1      25.230  10.705  19.766  1.00  0.00     0.239 S 
ATOM     12  C   UNL     1      25.240  13.203  20.922  1.00  0.00     0.205 C 
ATOM     13  O   UNL     1      26.339  10.413  18.875  1.00  0.00    -0.206 OA
ATOM     14  N   UNL     1      25.775  11.896  20.883  1.00  0.00    -0.243 N 
ATOM     15  O   UNL     1      24.584   9.733  20.590  1.00  0.00    -0.206 OA
ATOM     16  N   UNL     1      26.022  14.104  21.592  1.00  0.00    -0.369 N 
ATOM     17  C   UNL     1      22.358  13.409  18.822  1.00  0.00     0.044 C 
ATOM     18  C   UNL     1      26.983  11.499  21.634  1.00  0.00     0.167 C 
ATOM     19  H   UNL     1      25.734  15.042  21.673  1.00  0.00     0.159 HD
ATOM     20  H   UNL     1      26.874  13.815  21.993  1.00  0.00     0.159 HD
ENDBRANCH   1   8
BRANCH   3  21
ATOM     21  N   UNL     1      21.630  12.096  24.325  1.00  0.00    -0.321 N 
ATOM     22  C   UNL     1      20.631  12.713  25.056  1.00  0.00     0.274 C 
ATOM     23  O   UNL     1      19.538  13.044  24.615  1.00  0.00    -0.267 OA
ATOM     24  H   UNL     1      22.496  11.993  24.782  1.00  0.00     0.170 HD
BRANCH  22  25
ATOM     25  C   UNL     1      20.942  12.939  26.488  1.00  0.00     0.128 A 
ATOM     26  N   UNL     1      20.742  14.178  26.950  1.00  0.00    -0.248 NA
ATOM     27  C   UNL     1      21.400  11.893  27.269  1.00  0.00     0.037 A 
ATOM     28  C   UNL     1      21.021  14.408  28.243  1.00  0.00     0.151 A 
ATOM     29  C   UNL     1      21.673  12.159  28.599  1.00  0.00     0.043 A 
ATOM     30  C   UNL     1      21.487  13.434  29.098  1.00  0.00     0.141 A 
ATOM     31  F   UNL     1      21.729  13.738  30.384  1.00  0.00    -0.205 F 
ENDBRANCH  22  25
ENDBRANCH   3  21
TORSDOF 3
ENDMDL
MODEL 5
REMARK VINA RESULT:    -8.185      3.715      6.904
REMARK INTER + INTRA:          -9.965
REMARK INTER:                 -10.498
REMARK INTRA:                   0.533
REMARK UNBOUND:                -0.344
REMARK SMILES CN1C(N)=N[C@](C)(c2cc(NC(=O)c3ccc(F)cn3)ccc2F)CS1(=O)=O
REMARK SMILES IDX 8 1 9 2 10 3 21 4 22 5 23 6 24 7 6 8 25 9 5 10 26 11 3 12
REMARK SMILES IDX 27 13 2 14 28 15 4 16 7 17 1 18 11 21 12 22 13 23 14 25
REMARK SMILES IDX 20 26 15 27 19 28 16 29 17 30 18 31
REMARK H PARENT 4 19 4 20 11 24
ROOT
ATOM      1  C   UNL     1      24.277  11.953  20.408  1.00  0.00     0.018 A 
ATOM      2  C   UNL     1      23.932  11.830  21.753  1.00  0.00     0.035 A 
ATOM      3  C   UNL     1      22.692  12.188  22.231  1.00  0.00     0.042 A 
ATOM      4  C   UNL     1      21.733  12.714  21.375  1.00  0.00     0.029 A 
ATOM      5  C   UNL     1      22.056  12.840  20.035  1.00  0.00     0.042 A 
ATOM      6  C   UNL     1      23.293  12.447  19.564  1.00  0.00     0.129 A 
ATOM      7  F   UNL     1      23.575  12.554  18.241  1.00  0.00    -0.207 F 
ENDROOT
BRANCH   1   8
ATOM      8  C   UNL     1      25.655  11.546  19.910  1.00  0.00     0.105 C 
ATOM      9  C   UNL     1      26.785  11.786  20.886  1.00  0.00     0.195 C 
ATOM     10  N   UNL     1      25.971  12.150  18.617  1.00  0.00    -0.240 NA
ATOM     11  S   UNL     1      26.975  13.520  21.213  1.00  0.00     0.239 S 
ATOM     12  C   UNL     1      26.414  13.366  18.523  1.00  0.00     0.205 C 
ATOM     13  O   UNL     1      28.369  13.726  21.561  1.00  0.00    -0.206 OA
ATOM     14  N   UNL     1      26.742  14.171  19.636  1.00  0.00    -0.243 N 
ATOM     15  O   UNL     1      25.874  14.039  21.963  1.00  0.00    -0.206 OA
ATOM     16  N   UNL     1      26.630  13.974  17.315  1.00  0.00    -0.369 N 
ATOM     17  C   UNL     1      25.644  10.048  19.595  1.00  0.00     0.044 C 
ATOM     18  C   UNL     1      27.125  15.592  19.517  1.00  0.00     0.167 C 
ATOM     19  H   UNL     1      26.432  13.492  16.480  1.00  0.00     0.159 HD
ATOM     20  H   UNL     1      26.985  14.892  17.282  1.00  0.00     0.159 HD
ENDBRANCH   1   8
BRANCH   3  21
ATOM     21  N   UNL     1      22.475  12.016  23.605  1.00  0.00    -0.321 N 
ATOM     22  C   UNL     1      23.223  12.510  24.659  1.00  0.00     0.274 C 
ATOM     23  O   UNL     1      24.297  13.087  24.551  1.00  0.00    -0.267 OA
ATOM     24  H   UNL     1      21.690  11.476  23.851  1.00  0.00     0.170 HD
BRANCH  22  25
ATOM     25  C   UNL     1      22.618  12.334  26.001  1.00  0.00     0.128 A 
ATOM     26  N   UNL     1      23.181  13.023  27.000  1.00  0.00    -0.248 NA
ATOM     27  C   UNL     1      21.525  11.501  26.163  1.00  0.00     0.037 A 
ATOM     28  C   UNL     1      22.653  12.876  28.226  1.00  0.00     0.151 A 
ATOM     29  C   UNL     1      21.000  11.375  27.437  1.00  0.00     0.043 A 
ATOM     30  C   UNL     1      21.571  12.066  28.488  1.00  0.00     0.141 A 
ATOM     31  F   UNL     1      21.090  11.983  29.740  1.00  0.00    -0.205 F 
ENDBRANCH  22  25
ENDBRANCH   3  21
TORSDOF 3
ENDMDL
MODEL 6
REMARK VINA RESULT:    -7.999      3.680      7.391
REMARK INTER + INTRA:          -9.746
REMARK INTER:                  -9.390
REMARK INTRA:                  -0.356
REMARK UNBOUND:                -0.344
REMARK SMILES CN1C(N)=N[C@](C)(c2cc(NC(=O)c3ccc(F)cn3)ccc2F)CS1(=O)=O
REMARK SMILES IDX 8 1 9 2 10 3 21 4 22 5 23 6 24 7 6 8 25 9 5 10 26 11 3 12
REMARK SMILES IDX 27 13 2 14 28 15 4 16 7 17 1 18 11 21 12 22 13 23 14 25
REMARK SMILES IDX 20 26 15 27 19 28 16 29 17 30 18 31
REMARK H PARENT 4 19 4 20 11 24
ROOT
ATOM      1  C   UNL     1      25.973  12.667  20.384  1.00  0.00     0.018 A 
ATOM      2  C   UNL     1      25.070  12.662  21.445  1.00  0.00     0.035 A 
ATOM      3  C   UNL     1      24.180  11.632  21.650  1.00  0.00     0.042 A 
ATOM      4  C   UNL     1      24.138  10.554  20.774  1.00  0.00     0.029 A 
ATOM      5  C   UNL     1      25.030  10.541  19.717  1.00  0.00     0.042 A 
ATOM      6  C   UNL     1      25.939  11.565  19.542  1.00  0.00     0.129 A 
ATOM      7  F   UNL     1      26.823  11.514  18.513  1.00  0.00    -0.207 F 
ENDROOT
BRANCH   1   8
ATOM      8  C   UNL     1      26.947  13.818  20.186  1.00  0.00     0.105 C 
ATOM      9  C   UNL     1      28.408  13.427  20.176  1.00  0.00     0.195 C 
ATOM     10  N   UNL     1      26.723  14.897  21.148  1.00  0.00    -0.240 NA
ATOM     11  S   UNL     1      28.890  12.761  21.749  1.00  0.00     0.239 S 
ATOM     12  C   UNL     1      27.197  14.844  22.354  1.00  0.00     0.205 C 
ATOM     13  O   UNL     1      30.309  13.032  21.895  1.00  0.00    -0.206 OA
ATOM     14  N   UNL     1      28.056  13.823  22.817  1.00  0.00    -0.243 N 
ATOM     15  O   UNL     1      28.286  11.489  21.990  1.00  0.00    -0.206 OA
ATOM     16  N   UNL     1      26.921  15.804  23.290  1.00  0.00    -0.369 N 
ATOM     17  C   UNL     1      26.652  14.490  18.842  1.00  0.00     0.044 C 
ATOM     18  C   UNL     1      28.486  13.709  24.225  1.00  0.00     0.167 C 
ATOM     19  H   UNL     1      26.330  16.559  23.062  1.00  0.00     0.159 HD
ATOM     20  H   UNL     1      27.313  15.741  24.191  1.00  0.00     0.159 HD
ENDBRANCH   1   8
BRANCH   3  21
ATOM     21  N   UNL     1      23.324  11.752  22.753  1.00  0.00    -0.321 N 
ATOM     22  C   UNL     1      22.057  12.306  22.799  1.00  0.00     0.274 C 
ATOM     23  O   UNL     1      21.520  12.912  21.881  1.00  0.00    -0.267 OA
ATOM     24  H   UNL     1      23.668  11.395  23.604  1.00  0.00     0.170 HD
BRANCH  22  25
ATOM     25  C   UNL     1      21.319  12.093  24.067  1.00  0.00     0.128 A 
ATOM     26  N   UNL     1      21.851  12.645  25.163  1.00  0.00    -0.248 NA
ATOM     27  C   UNL     1      20.141  11.366  24.067  1.00  0.00     0.037 A 
ATOM     28  C   UNL     1      21.202  12.462  26.324  1.00  0.00     0.151 A 
ATOM     29  C   UNL     1      19.492  11.200  25.278  1.00  0.00     0.043 A 
ATOM     30  C   UNL     1      20.028  11.750  26.427  1.00  0.00     0.141 A 
ATOM     31  F   UNL     1      19.429  11.623  27.623  1.00  0.00    -0.205 F 
ENDBRANCH  22  25
ENDBRANCH   3  21
TORSDOF 3
ENDMDL
MODEL 7
REMARK VINA RESULT:    -7.955      4.519      6.402
REMARK INTER + INTRA:          -9.695
REMARK INTER:                  -9.988
REMARK INTRA:                   0.293
REMARK UNBOUND:                -0.344
REMARK SMILES CN1C(N)=N[C@](C)(c2cc(NC(=O)c3ccc(F)cn3)ccc2F)CS1(=O)=O
REMARK SMILES IDX 8 1 9 2 10 3 21 4 22 5 23 6 24 7 6 8 25 9 5 10 26 11 3 12
REMARK SMILES IDX 27 13 2 14 28 15 4 16 7 17 1 18 11 21 12 22 13 23 14 25
REMARK SMILES IDX 20 26 15 27 19 28 16 29 17 30 18 31
REMARK H PARENT 4 19 4 20 11 24
ROOT
ATOM      1  C   UNL     1      19.411  12.180  24.988  1.00  0.00     0.018 A 
ATOM      2  C   UNL     1      20.299  12.615  24.005  1.00  0.00     0.035 A 
ATOM      3  C   UNL     1      20.770  11.780  23.017  1.00  0.00     0.042 A 
ATOM      4  C   UNL     1      20.384  10.446  22.980  1.00  0.00     0.029 A 
ATOM      5  C   UNL     1      19.501   9.998  23.945  1.00  0.00     0.042 A 
ATOM      6  C   UNL     1      19.012  10.854  24.912  1.00  0.00     0.129 A 
ATOM      7  F   UNL     1      18.123  10.396  25.831  1.00  0.00    -0.207 F 
ENDROOT
BRANCH   1   8
ATOM      8  C   UNL     1      18.907  13.127  26.065  1.00  0.00     0.105 C 
ATOM      9  C   UNL     1      19.816  14.297  26.367  1.00  0.00     0.195 C 
ATOM     10  N   UNL     1      18.568  12.422  27.301  1.00  0.00    -0.240 NA
ATOM     11  S   UNL     1      21.366  13.733  27.025  1.00  0.00     0.239 S 
ATOM     12  C   UNL     1      19.476  12.091  28.167  1.00  0.00     0.205 C 
ATOM     13  O   UNL     1      21.872  14.802  27.866  1.00  0.00    -0.206 OA
ATOM     14  N   UNL     1      20.832  12.472  28.068  1.00  0.00    -0.243 N 
ATOM     15  O   UNL     1      22.142  13.053  26.035  1.00  0.00    -0.206 OA
ATOM     16  N   UNL     1      19.185  11.355  29.284  1.00  0.00    -0.369 N 
ATOM     17  C   UNL     1      17.561  13.708  25.622  1.00  0.00     0.044 C 
ATOM     18  C   UNL     1      21.874  11.985  28.994  1.00  0.00     0.167 C 
ATOM     19  H   UNL     1      18.265  11.042  29.442  1.00  0.00     0.159 HD
ATOM     20  H   UNL     1      19.897  11.138  29.930  1.00  0.00     0.159 HD
ENDBRANCH   1   8
BRANCH   3  21
ATOM     21  N   UNL     1      21.660  12.342  22.092  1.00  0.00    -0.321 N 
ATOM     22  C   UNL     1      23.037  12.224  22.047  1.00  0.00     0.274 C 
ATOM     23  O   UNL     1      23.727  11.696  22.909  1.00  0.00    -0.267 OA
ATOM     24  H   UNL     1      21.252  12.892  21.384  1.00  0.00     0.170 HD
BRANCH  22  25
ATOM     25  C   UNL     1      23.679  12.762  20.823  1.00  0.00     0.128 A 
ATOM     26  N   UNL     1      24.970  13.096  20.928  1.00  0.00    -0.248 NA
ATOM     27  C   UNL     1      22.947  12.883  19.655  1.00  0.00     0.037 A 
ATOM     28  C   UNL     1      25.572  13.590  19.834  1.00  0.00     0.151 A 
ATOM     29  C   UNL     1      23.597  13.389  18.542  1.00  0.00     0.043 A 
ATOM     30  C   UNL     1      24.926  13.753  18.629  1.00  0.00     0.141 A 
ATOM     31  F   UNL     1      25.601  14.240  17.574  1.00  0.00    -0.205 F 
ENDBRANCH  22  25
ENDBRANCH   3  21
TORSDOF 3
ENDMDL
MODEL 8
REMARK VINA RESULT:    -7.899      3.848      4.737
REMARK INTER + INTRA:          -9.629
REMARK INTER:                 -10.320
REMARK INTRA:                   0.692
REMARK UNBOUND:                -0.344
REMARK SMILES CN1C(N)=N[C@](C)(c2cc(NC(=O)c3ccc(F)cn3)ccc2F)CS1(=O)=O
REMARK SMILES IDX 8 1 9 2 10 3 21 4 22 5 23 6 24 7 6 8 25 9 5 10 26 11 3 12
REMARK SMILES IDX 27 13 2 14 28 15 4 16 7 17 1 18 11 21 12 22 13 23 14 25
REMARK SMILES IDX 20 26 15 27 19 28 16 29 17 30 18 31
REMARK H PARENT 4 19 4 20 11 24
ROOT
ATOM      1  C   UNL     1      24.097  12.140  20.732  1.00  0.00     0.018 A 
ATOM      2  C   UNL     1      24.696  12.931  21.711  1.00  0.00     0.035 A 
ATOM      3  C   UNL     1      26.026  12.810  22.044  1.00  0.00     0.042 A 
ATOM      4  C   UNL     1      26.825  11.862  21.417  1.00  0.00     0.029 A 
ATOM      5  C   UNL     1      26.248  11.071  20.439  1.00  0.00     0.042 A 
ATOM      6  C   UNL     1      24.920  11.225  20.093  1.00  0.00     0.129 A 
ATOM      7  F   UNL     1      24.386  10.456  19.110  1.00  0.00    -0.207 F 
ENDROOT
BRANCH   1   8
ATOM      8  C   UNL     1      22.625  12.300  20.384  1.00  0.00     0.105 C 
ATOM      9  C   UNL     1      21.796  13.018  21.425  1.00  0.00     0.195 C 
ATOM     10  N   UNL     1      22.002  11.024  20.039  1.00  0.00    -0.240 NA
ATOM     11  S   UNL     1      21.751  12.093  22.940  1.00  0.00     0.239 S 
ATOM     12  C   UNL     1      21.587  10.199  20.950  1.00  0.00     0.205 C 
ATOM     13  O   UNL     1      20.503  12.435  23.597  1.00  0.00    -0.206 OA
ATOM     14  N   UNL     1      21.585  10.491  22.332  1.00  0.00    -0.243 N 
ATOM     15  O   UNL     1      23.025  12.083  23.589  1.00  0.00    -0.206 OA
ATOM     16  N   UNL     1      21.082   8.964  20.643  1.00  0.00    -0.369 N 
ATOM     17  C   UNL     1      22.508  13.102  19.085  1.00  0.00     0.044 C 
ATOM     18  C   UNL     1      21.227   9.498  23.364  1.00  0.00     0.167 C 
ATOM     19  H   UNL     1      21.041   8.668  19.705  1.00  0.00     0.159 HD
ATOM     20  H   UNL     1      20.760   8.371  21.360  1.00  0.00     0.159 HD
ENDBRANCH   1   8
BRANCH   3  21
ATOM     21  N   UNL     1      26.502  13.664  23.048  1.00  0.00    -0.321 N 
ATOM     22  C   UNL     1      26.286  13.587  24.412  1.00  0.00     0.274 C 
ATOM     23  O   UNL     1      25.516  12.809  24.960  1.00  0.00    -0.267 OA
ATOM     24  H   UNL     1      27.063  14.414  22.743  1.00  0.00     0.170 HD
BRANCH  22  25
ATOM     25  C   UNL     1      27.098  14.515  25.235  1.00  0.00     0.128 A 
ATOM     26  N   UNL     1      28.386  14.193  25.396  1.00  0.00    -0.248 NA
ATOM     27  C   UNL     1      26.516  15.646  25.779  1.00  0.00     0.037 A 
ATOM     28  C   UNL     1      29.141  15.016  26.141  1.00  0.00     0.151 A 
ATOM     29  C   UNL     1      27.321  16.478  26.537  1.00  0.00     0.043 A 
ATOM     30  C   UNL     1      28.652  16.161  26.728  1.00  0.00     0.141 A 
ATOM     31  F   UNL     1      29.474  16.943  27.448  1.00  0.00    -0.205 F 
ENDBRANCH  22  25
ENDBRANCH   3  21
TORSDOF 3
ENDMDL
MODEL 9
REMARK VINA RESULT:    -7.795      4.242      5.171
REMARK INTER + INTRA:          -9.506
REMARK INTER:                  -9.119
REMARK INTRA:                  -0.387
REMARK UNBOUND:                -0.344
REMARK SMILES CN1C(N)=N[C@](C)(c2cc(NC(=O)c3ccc(F)cn3)ccc2F)CS1(=O)=O
REMARK SMILES IDX 8 1 9 2 10 3 21 4 22 5 23 6 24 7 6 8 25 9 5 10 26 11 3 12
REMARK SMILES IDX 27 13 2 14 28 15 4 16 7 17 1 18 11 21 12 22 13 23 14 25
REMARK SMILES IDX 20 26 15 27 19 28 16 29 17 30 18 31
REMARK H PARENT 4 19 4 20 11 24
ROOT
ATOM      1  C   UNL     1      26.074  12.293  19.957  1.00  0.00     0.018 A 
ATOM      2  C   UNL     1      26.366  12.816  21.215  1.00  0.00     0.035 A 
ATOM      3  C   UNL     1      27.146  13.938  21.384  1.00  0.00     0.042 A 
ATOM      4  C   UNL     1      27.697  14.583  20.283  1.00  0.00     0.029 A 
ATOM      5  C   UNL     1      27.415  14.079  19.026  1.00  0.00     0.042 A 
ATOM      6  C   UNL     1      26.604  12.972  18.871  1.00  0.00     0.129 A 
ATOM      7  F   UNL     1      26.320  12.515  17.624  1.00  0.00    -0.207 F 
ENDROOT
BRANCH   1   8
ATOM      8  C   UNL     1      25.206  11.054  19.803  1.00  0.00     0.105 C 
ATOM      9  C   UNL     1      24.031  11.207  18.862  1.00  0.00     0.195 C 
ATOM     10  N   UNL     1      24.751  10.539  21.094  1.00  0.00    -0.240 NA
ATOM     11  S   UNL     1      22.891  12.420  19.475  1.00  0.00     0.239 S 
ATOM     12  C   UNL     1      23.729  11.049  21.709  1.00  0.00     0.205 C 
ATOM     13  O   UNL     1      21.583  12.058  18.959  1.00  0.00    -0.206 OA
ATOM     14  N   UNL     1      22.897  12.048  21.156  1.00  0.00    -0.243 N 
ATOM     15  O   UNL     1      23.441  13.739  19.415  1.00  0.00    -0.206 OA
ATOM     16  N   UNL     1      23.346  10.636  22.957  1.00  0.00    -0.369 N 
ATOM     17  C   UNL     1      26.068   9.910  19.262  1.00  0.00     0.044 C 
ATOM     18  C   UNL     1      21.814  12.704  21.915  1.00  0.00     0.167 C 
ATOM     19  H   UNL     1      23.864   9.941  23.426  1.00  0.00     0.159 HD
ATOM     20  H   UNL     1      22.554  11.032  23.386  1.00  0.00     0.159 HD
ENDBRANCH   1   8
BRANCH   3  21
ATOM     21  N   UNL     1      27.364  14.358  22.702  1.00  0.00    -0.321 N 
ATOM     22  C   UNL     1      28.255  13.846  23.629  1.00  0.00     0.274 C 
ATOM     23  O   UNL     1      28.923  12.831  23.477  1.00  0.00    -0.267 OA
ATOM     24  H   UNL     1      26.814  15.115  23.008  1.00  0.00     0.170 HD
BRANCH  22  25
ATOM     25  C   UNL     1      28.403  14.642  24.871  1.00  0.00     0.128 A 
ATOM     26  N   UNL     1      29.588  14.566  25.486  1.00  0.00    -0.248 NA
ATOM     27  C   UNL     1      27.349  15.415  25.327  1.00  0.00     0.037 A 
ATOM     28  C   UNL     1      29.745  15.275  26.616  1.00  0.00     0.151 A 
ATOM     29  C   UNL     1      27.543  16.138  26.490  1.00  0.00     0.043 A 
ATOM     30  C   UNL     1      28.754  16.067  27.151  1.00  0.00     0.141 A 
ATOM     31  F   UNL     1      28.992  16.759  28.278  1.00  0.00    -0.205 F 
ENDBRANCH  22  25
ENDBRANCH   3  21
TORSDOF 3
ENDMDL
MODEL 10
REMARK VINA RESULT:    -7.761      5.327      8.149
REMARK INTER + INTRA:          -9.467
REMARK INTER:                  -9.145
REMARK INTRA:                  -0.322
REMARK UNBOUND:                -0.344
REMARK SMILES CN1C(N)=N[C@](C)(c2cc(NC(=O)c3ccc(F)cn3)ccc2F)CS1(=O)=O
REMARK SMILES IDX 8 1 9 2 10 3 21 4 22 5 23 6 24 7 6 8 25 9 5 10 26 11 3 12
REMARK SMILES IDX 27 13 2 14 28 15 4 16 7 17 1 18 11 21 12 22 13 23 14 25
REMARK SMILES IDX 20 26 15 27 19 28 16 29 17 30 18 31
REMARK H PARENT 4 19 4 20 11 24
ROOT
ATOM      1  C   UNL     1      20.119  12.852  27.231  1.00  0.00     0.018 A 
ATOM      2  C   UNL     1      20.599  12.769  25.925  1.00  0.00     0.035 A 
ATOM      3  C   UNL     1      20.997  11.578  25.361  1.00  0.00     0.042 A 
ATOM      4  C   UNL     1      20.951  10.401  26.097  1.00  0.00     0.029 A 
ATOM      5  C   UNL     1      20.474  10.463  27.394  1.00  0.00     0.042 A 
ATOM      6  C   UNL     1      20.048  11.660  27.937  1.00  0.00     0.129 A 
ATOM      7  F   UNL     1      19.556  11.689  29.202  1.00  0.00    -0.207 F 
ENDROOT
BRANCH   1   8
ATOM      8  C   UNL     1      19.684  14.182  27.825  1.00  0.00     0.105 C 
ATOM      9  C   UNL     1      18.358  14.157  28.553  1.00  0.00     0.195 C 
ATOM     10  N   UNL     1      19.691  15.255  26.832  1.00  0.00    -0.240 NA
ATOM     11  S   UNL     1      17.036  13.768  27.434  1.00  0.00     0.239 S 
ATOM     12  C   UNL     1      18.706  15.425  26.005  1.00  0.00     0.205 C 
ATOM     13  O   UNL     1      15.840  14.385  27.976  1.00  0.00    -0.206 OA
ATOM     14  N   UNL     1      17.503  14.686  26.054  1.00  0.00    -0.243 N 
ATOM     15  O   UNL     1      17.108  12.413  26.983  1.00  0.00    -0.206 OA
ATOM     16  N   UNL     1      18.738  16.368  25.014  1.00  0.00    -0.369 N 
ATOM     17  C   UNL     1      20.741  14.642  28.834  1.00  0.00     0.044 C 
ATOM     18  C   UNL     1      16.444  14.804  25.032  1.00  0.00     0.167 C 
ATOM     19  H   UNL     1      19.536  16.934  24.899  1.00  0.00     0.159 HD
ATOM     20  H   UNL     1      17.964  16.481  24.415  1.00  0.00     0.159 HD
ENDBRANCH   1   8
BRANCH   3  21
ATOM     21  N   UNL     1      21.462  11.634  24.041  1.00  0.00    -0.321 N 
ATOM     22  C   UNL     1      20.919  11.042  22.914  1.00  0.00     0.274 C 
ATOM     23  O   UNL     1      19.988  10.247  22.916  1.00  0.00    -0.267 OA
ATOM     24  H   UNL     1      22.281  12.162  23.896  1.00  0.00     0.170 HD
BRANCH  22  25
ATOM     25  C   UNL     1      21.522  11.460  21.626  1.00  0.00     0.128 A 
ATOM     26  N   UNL     1      21.685  10.501  20.708  1.00  0.00    -0.248 NA
ATOM     27  C   UNL     1      21.872  12.784  21.424  1.00  0.00     0.037 A 
ATOM     28  C   UNL     1      22.234  10.855  19.534  1.00  0.00     0.151 A 
ATOM     29  C   UNL     1      22.428  13.119  20.202  1.00  0.00     0.043 A 
ATOM     30  C   UNL     1      22.619  12.143  19.242  1.00  0.00     0.141 A 
ATOM     31  F   UNL     1      23.147  12.423  18.038  1.00  0.00    -0.205 F 
ENDBRANCH  22  25
ENDBRANCH   3  21
TORSDOF 3
ENDMDL
MODEL 11
REMARK VINA RESULT:    -7.458      3.584      6.683
REMARK INTER + INTRA:          -9.110
REMARK INTER:                  -9.078
REMARK INTRA:                  -0.031
REMARK UNBOUND:                -0.344
REMARK SMILES CN1C(N)=N[C@](C)(c2cc(NC(=O)c3ccc(F)cn3)ccc2F)CS1(=O)=O
REMARK SMILES IDX 8 1 9 2 10 3 21 4 22 5 23 6 24 7 6 8 25 9 5 10 26 11 3 12
REMARK SMILES IDX 27 13 2 14 28 15 4 16 7 17 1 18 11 21 12 22 13 23 14 25
REMARK SMILES IDX 20 26 15 27 19 28 16 29 17 30 18 31
REMARK H PARENT 4 19 4 20 11 24
ROOT
ATOM      1  C   UNL     1      26.279  12.224  21.551  1.00  0.00     0.018 A 
ATOM      2  C   UNL     1      25.408  12.209  22.640  1.00  0.00     0.035 A 
ATOM      3  C   UNL     1      25.439  13.173  23.622  1.00  0.00     0.042 A 
ATOM      4  C   UNL     1      26.373  14.200  23.569  1.00  0.00     0.029 A 
ATOM      5  C   UNL     1      27.244  14.233  22.494  1.00  0.00     0.042 A 
ATOM      6  C   UNL     1      27.179  13.277  21.500  1.00  0.00     0.129 A 
ATOM      7  F   UNL     1      28.025  13.349  20.440  1.00  0.00    -0.207 F 
ENDROOT
BRANCH   1   8
ATOM      8  C   UNL     1      26.217  11.146  20.481  1.00  0.00     0.105 C 
ATOM      9  C   UNL     1      25.922  11.646  19.084  1.00  0.00     0.195 C 
ATOM     10  N   UNL     1      25.290  10.073  20.836  1.00  0.00    -0.240 NA
ATOM     11  S   UNL     1      24.307  12.378  19.008  1.00  0.00     0.239 S 
ATOM     12  C   UNL     1      24.011  10.185  20.645  1.00  0.00     0.205 C 
ATOM     13  O   UNL     1      23.844  12.218  17.641  1.00  0.00    -0.206 OA
ATOM     14  N   UNL     1      23.409  11.278  19.982  1.00  0.00    -0.243 N 
ATOM     15  O   UNL     1      24.249  13.606  19.737  1.00  0.00    -0.206 OA
ATOM     16  N   UNL     1      23.124   9.226  21.053  1.00  0.00    -0.369 N 
ATOM     17  C   UNL     1      27.568  10.427  20.424  1.00  0.00     0.044 C 
ATOM     18  C   UNL     1      21.947  11.452  19.882  1.00  0.00     0.167 C 
ATOM     19  H   UNL     1      23.448   8.425  21.525  1.00  0.00     0.159 HD
ATOM     20  H   UNL     1      22.162   9.337  20.875  1.00  0.00     0.159 HD
ENDBRANCH   1   8
BRANCH   3  21
ATOM     21  N   UNL     1      24.511  13.040  24.662  1.00  0.00    -0.321 N 
ATOM     22  C   UNL     1      23.231  12.518  24.607  1.00  0.00     0.274 C 
ATOM     23  O   UNL     1      22.644  12.198  23.582  1.00  0.00    -0.267 OA
ATOM     24  H   UNL     1      24.808  13.357  25.546  1.00  0.00     0.170 HD
BRANCH  22  25
ATOM     25  C   UNL     1      22.572  12.317  25.921  1.00  0.00     0.128 A 
ATOM     26  N   UNL     1      23.083  12.999  26.951  1.00  0.00    -0.248 NA
ATOM     27  C   UNL     1      21.483  11.469  26.025  1.00  0.00     0.037 A 
ATOM     28  C   UNL     1      22.505  12.830  28.152  1.00  0.00     0.151 A 
ATOM     29  C   UNL     1      20.906  11.320  27.274  1.00  0.00     0.043 A 
ATOM     30  C   UNL     1      21.423  12.005  28.357  1.00  0.00     0.141 A 
ATOM     31  F   UNL     1      20.891  11.899  29.586  1.00  0.00    -0.205 F 
ENDBRANCH  22  25
ENDBRANCH   3  21
TORSDOF 3
ENDMDL
MODEL 12
REMARK VINA RESULT:    -7.404      4.472      7.759
REMARK INTER + INTRA:          -9.047
REMARK INTER:                  -8.657
REMARK INTRA:                  -0.390
REMARK UNBOUND:                -0.344
REMARK SMILES CN1C(N)=N[C@](C)(c2cc(NC(=O)c3ccc(F)cn3)ccc2F)CS1(=O)=O
REMARK SMILES IDX 8 1 9 2 10 3 21 4 22 5 23 6 24 7 6 8 25 9 5 10 26 11 3 12
REMARK SMILES IDX 27 13 2 14 28 15 4 16 7 17 1 18 11 21 12 22 13 23 14 25
REMARK SMILES IDX 20 26 15 27 19 28 16 29 17 30 18 31
REMARK H PARENT 4 19 4 20 11 24
ROOT
ATOM      1  C   UNL     1      27.074  14.101  21.394  1.00  0.00     0.018 A 
ATOM      2  C   UNL     1      25.921  13.777  22.107  1.00  0.00     0.035 A 
ATOM      3  C   UNL     1      25.262  12.580  21.937  1.00  0.00     0.042 A 
ATOM      4  C   UNL     1      25.723  11.648  21.015  1.00  0.00     0.029 A 
ATOM      5  C   UNL     1      26.868  11.951  20.301  1.00  0.00     0.042 A 
ATOM      6  C   UNL     1      27.537  13.142  20.505  1.00  0.00     0.129 A 
ATOM      7  F   UNL     1      28.675  13.403  19.813  1.00  0.00    -0.207 F 
ENDROOT
BRANCH   1   8
ATOM      8  C   UNL     1      27.781  15.430  21.606  1.00  0.00     0.105 C 
ATOM      9  C   UNL     1      29.255  15.328  21.931  1.00  0.00     0.195 C 
ATOM     10  N   UNL     1      27.104  16.259  22.602  1.00  0.00    -0.240 NA
ATOM     11  S   UNL     1      29.499  14.494  23.479  1.00  0.00     0.239 S 
ATOM     12  C   UNL     1      27.286  16.081  23.874  1.00  0.00     0.205 C 
ATOM     13  O   UNL     1      30.746  14.994  24.027  1.00  0.00    -0.206 OA
ATOM     14  N   UNL     1      28.223  15.173  24.415  1.00  0.00    -0.243 N 
ATOM     15  O   UNL     1      29.158  13.108  23.391  1.00  0.00    -0.206 OA
ATOM     16  N   UNL     1      26.592  16.790  24.818  1.00  0.00    -0.369 N 
ATOM     17  C   UNL     1      27.661  16.264  20.327  1.00  0.00     0.044 C 
ATOM     18  C   UNL     1      28.330  14.892  25.860  1.00  0.00     0.167 C 
ATOM     19  H   UNL     1      25.915  17.449  24.539  1.00  0.00     0.159 HD
ATOM     20  H   UNL     1      26.769  16.642  25.775  1.00  0.00     0.159 HD
ENDBRANCH   1   8
BRANCH   3  21
ATOM     21  N   UNL     1      24.113  12.380  22.714  1.00  0.00    -0.321 N 
ATOM     22  C   UNL     1      22.789  12.489  22.328  1.00  0.00     0.274 C 
ATOM     23  O   UNL     1      22.402  12.913  21.247  1.00  0.00    -0.267 OA
ATOM     24  H   UNL     1      24.268  12.131  23.653  1.00  0.00     0.170 HD
BRANCH  22  25
ATOM     25  C   UNL     1      21.799  12.009  23.323  1.00  0.00     0.128 A 
ATOM     26  N   UNL     1      21.911  12.506  24.559  1.00  0.00    -0.248 NA
ATOM     27  C   UNL     1      20.823  11.103  22.945  1.00  0.00     0.037 A 
ATOM     28  C   UNL     1      21.028  12.083  25.478  1.00  0.00     0.151 A 
ATOM     29  C   UNL     1      19.924  10.690  23.913  1.00  0.00     0.043 A 
ATOM     30  C   UNL     1      20.026  11.180  25.200  1.00  0.00     0.141 A 
ATOM     31  F   UNL     1      19.171  10.816  26.171  1.00  0.00    -0.205 F 
ENDBRANCH  22  25
ENDBRANCH   3  21
TORSDOF 3
ENDMDL
MODEL 13
REMARK VINA RESULT:    -7.366      3.562      7.711
REMARK INTER + INTRA:          -9.002
REMARK INTER:                  -8.640
REMARK INTRA:                  -0.361
REMARK UNBOUND:                -0.344
REMARK SMILES CN1C(N)=N[C@](C)(c2cc(NC(=O)c3ccc(F)cn3)ccc2F)CS1(=O)=O
REMARK SMILES IDX 8 1 9 2 10 3 21 4 22 5 23 6 24 7 6 8 25 9 5 10 26 11 3 12
REMARK SMILES IDX 27 13 2 14 28 15 4 16 7 17 1 18 11 21 12 22 13 23 14 25
REMARK SMILES IDX 20 26 15 27 19 28 16 29 17 30 18 31
REMARK H PARENT 4 19 4 20 11 24
ROOT
ATOM      1  C   UNL     1      26.294  12.402  21.779  1.00  0.00     0.018 A 
ATOM      2  C   UNL     1      24.965  12.302  22.189  1.00  0.00     0.035 A 
ATOM      3  C   UNL     1      24.521  12.824  23.383  1.00  0.00     0.042 A 
ATOM      4  C   UNL     1      25.406  13.461  24.244  1.00  0.00     0.029 A 
ATOM      5  C   UNL     1      26.728  13.574  23.852  1.00  0.00     0.042 A 
ATOM      6  C   UNL     1      27.152  13.073  22.637  1.00  0.00     0.129 A 
ATOM      7  F   UNL     1      28.449  13.222  22.262  1.00  0.00    -0.207 F 
ENDROOT
BRANCH   1   8
ATOM      8  C   UNL     1      26.753  11.817  20.453  1.00  0.00     0.105 C 
ATOM      9  C   UNL     1      27.403  12.804  19.508  1.00  0.00     0.195 C 
ATOM     10  N   UNL     1      25.678  11.100  19.768  1.00  0.00    -0.240 NA
ATOM     11  S   UNL     1      26.245  14.055  19.014  1.00  0.00     0.239 S 
ATOM     12  C   UNL     1      24.786  11.723  19.062  1.00  0.00     0.205 C 
ATOM     13  O   UNL     1      26.667  14.514  17.703  1.00  0.00    -0.206 OA
ATOM     14  N   UNL     1      24.825  13.108  18.790  1.00  0.00    -0.243 N 
ATOM     15  O   UNL     1      25.910  14.922  20.100  1.00  0.00    -0.206 OA
ATOM     16  N   UNL     1      23.724  11.074  18.489  1.00  0.00    -0.369 N 
ATOM     17  C   UNL     1      27.780  10.715  20.727  1.00  0.00     0.044 C 
ATOM     18  C   UNL     1      23.738  13.822  18.091  1.00  0.00     0.167 C 
ATOM     19  H   UNL     1      23.611  10.105  18.622  1.00  0.00     0.159 HD
ATOM     20  H   UNL     1      23.076  11.576  17.945  1.00  0.00     0.159 HD
ENDBRANCH   1   8
BRANCH   3  21
ATOM     21  N   UNL     1      23.162  12.652  23.677  1.00  0.00    -0.321 N 
ATOM     22  C   UNL     1      22.540  11.554  24.244  1.00  0.00     0.274 C 
ATOM     23  O   UNL     1      23.079  10.478  24.469  1.00  0.00    -0.267 OA
ATOM     24  H   UNL     1      22.575  13.409  23.450  1.00  0.00     0.170 HD
BRANCH  22  25
ATOM     25  C   UNL     1      21.121  11.757  24.624  1.00  0.00     0.128 A 
ATOM     26  N   UNL     1      20.763  13.007  24.934  1.00  0.00    -0.248 NA
ATOM     27  C   UNL     1      20.249  10.682  24.634  1.00  0.00     0.037 A 
ATOM     28  C   UNL     1      19.483  13.214  25.285  1.00  0.00     0.151 A 
ATOM     29  C   UNL     1      18.935  10.929  24.995  1.00  0.00     0.043 A 
ATOM     30  C   UNL     1      18.543  12.210  25.331  1.00  0.00     0.141 A 
ATOM     31  F   UNL     1      17.277  12.499  25.678  1.00  0.00    -0.205 F 
ENDBRANCH  22  25
ENDBRANCH   3  21
TORSDOF 3
ENDMDL
MODEL 14
REMARK VINA RESULT:    -7.343      4.295      8.434
REMARK INTER + INTRA:          -8.975
REMARK INTER:                  -8.902
REMARK INTRA:                  -0.073
REMARK UNBOUND:                -0.344
REMARK SMILES CN1C(N)=N[C@](C)(c2cc(NC(=O)c3ccc(F)cn3)ccc2F)CS1(=O)=O
REMARK SMILES IDX 8 1 9 2 10 3 21 4 22 5 23 6 24 7 6 8 25 9 5 10 26 11 3 12
REMARK SMILES IDX 27 13 2 14 28 15 4 16 7 17 1 18 11 21 12 22 13 23 14 25
REMARK SMILES IDX 20 26 15 27 19 28 16 29 17 30 18 31
REMARK H PARENT 4 19 4 20 11 24
ROOT
ATOM      1  C   UNL     1      22.174  10.710  21.935  1.00  0.00     0.018 A 
ATOM      2  C   UNL     1      21.475  11.752  22.543  1.00  0.00     0.035 A 
ATOM      3  C   UNL     1      21.494  11.955  23.904  1.00  0.00     0.042 A 
ATOM      4  C   UNL     1      22.206  11.098  24.733  1.00  0.00     0.029 A 
ATOM      5  C   UNL     1      22.909  10.060  24.147  1.00  0.00     0.042 A 
ATOM      6  C   UNL     1      22.907   9.888  22.777  1.00  0.00     0.129 A 
ATOM      7  F   UNL     1      23.629   8.879  22.223  1.00  0.00    -0.207 F 
ENDROOT
BRANCH   1   8
ATOM      8  C   UNL     1      22.137  10.514  20.427  1.00  0.00     0.105 C 
ATOM      9  C   UNL     1      23.444  10.077  19.805  1.00  0.00     0.195 C 
ATOM     10  N   UNL     1      21.620  11.692  19.733  1.00  0.00    -0.240 NA
ATOM     11  S   UNL     1      24.687  11.327  20.014  1.00  0.00     0.239 S 
ATOM     12  C   UNL     1      22.373  12.716  19.473  1.00  0.00     0.205 C 
ATOM     13  O   UNL     1      25.614  11.179  18.906  1.00  0.00    -0.206 OA
ATOM     14  N   UNL     1      23.764  12.750  19.720  1.00  0.00    -0.243 N 
ATOM     15  O   UNL     1      25.083  11.453  21.382  1.00  0.00    -0.206 OA
ATOM     16  N   UNL     1      21.882  13.860  18.904  1.00  0.00    -0.369 N 
ATOM     17  C   UNL     1      21.099   9.438  20.094  1.00  0.00     0.044 C 
ATOM     18  C   UNL     1      24.584  13.963  19.535  1.00  0.00     0.167 C 
ATOM     19  H   UNL     1      20.923  13.932  18.694  1.00  0.00     0.159 HD
ATOM     20  H   UNL     1      22.487  14.610  18.704  1.00  0.00     0.159 HD
ENDBRANCH   1   8
BRANCH   3  21
ATOM     21  N   UNL     1      20.746  13.036  24.388  1.00  0.00    -0.321 N 
ATOM     22  C   UNL     1      19.512  13.014  25.012  1.00  0.00     0.274 C 
ATOM     23  O   UNL     1      18.799  12.026  25.129  1.00  0.00    -0.267 OA
ATOM     24  H   UNL     1      21.151  13.926  24.268  1.00  0.00     0.170 HD
BRANCH  22  25
ATOM     25  C   UNL     1      19.076  14.305  25.599  1.00  0.00     0.128 A 
ATOM     26  N   UNL     1      19.868  14.824  26.542  1.00  0.00    -0.248 NA
ATOM     27  C   UNL     1      17.911  14.907  25.156  1.00  0.00     0.037 A 
ATOM     28  C   UNL     1      19.491  15.991  27.092  1.00  0.00     0.151 A 
ATOM     29  C   UNL     1      17.553  16.110  25.737  1.00  0.00     0.043 A 
ATOM     30  C   UNL     1      18.348  16.662  26.722  1.00  0.00     0.141 A 
ATOM     31  F   UNL     1      18.045  17.833  27.309  1.00  0.00    -0.205 F 
ENDBRANCH  22  25
ENDBRANCH   3  21
TORSDOF 3
ENDMDL
MODEL 15
REMARK VINA RESULT:    -7.313      5.570      8.456
REMARK INTER + INTRA:          -8.940
REMARK INTER:                  -9.287
REMARK INTRA:                   0.347
REMARK UNBOUND:                -0.344
REMARK SMILES CN1C(N)=N[C@](C)(c2cc(NC(=O)c3ccc(F)cn3)ccc2F)CS1(=O)=O
REMARK SMILES IDX 8 1 9 2 10 3 21 4 22 5 23 6 24 7 6 8 25 9 5 10 26 11 3 12
REMARK SMILES IDX 27 13 2 14 28 15 4 16 7 17 1 18 11 21 12 22 13 23 14 25
REMARK SMILES IDX 20 26 15 27 19 28 16 29 17 30 18 31
REMARK H PARENT 4 19 4 20 11 24
ROOT
ATOM      1  C   UNL     1      17.870  13.519  25.984  1.00  0.00     0.018 A 
ATOM      2  C   UNL     1      18.695  13.272  24.888  1.00  0.00     0.035 A 
ATOM      3  C   UNL     1      20.008  12.880  25.029  1.00  0.00     0.042 A 
ATOM      4  C   UNL     1      20.568  12.738  26.292  1.00  0.00     0.029 A 
ATOM      5  C   UNL     1      19.762  12.977  27.391  1.00  0.00     0.042 A 
ATOM      6  C   UNL     1      18.439  13.338  27.235  1.00  0.00     0.129 A 
ATOM      7  F   UNL     1      17.661  13.537  28.331  1.00  0.00    -0.207 F 
ENDROOT
BRANCH   1   8
ATOM      8  C   UNL     1      16.423  13.948  25.796  1.00  0.00     0.105 C 
ATOM      9  C   UNL     1      16.187  14.933  24.673  1.00  0.00     0.195 C 
ATOM     10  N   UNL     1      15.834  14.450  27.037  1.00  0.00    -0.240 NA
ATOM     11  S   UNL     1      17.018  16.467  24.999  1.00  0.00     0.239 S 
ATOM     12  C   UNL     1      16.030  15.667  27.440  1.00  0.00     0.205 C 
ATOM     13  O   UNL     1      16.263  17.501  24.315  1.00  0.00    -0.206 OA
ATOM     14  N   UNL     1      16.715  16.645  26.684  1.00  0.00    -0.243 N 
ATOM     15  O   UNL     1      18.439  16.324  24.921  1.00  0.00    -0.206 OA
ATOM     16  N   UNL     1      15.558  16.124  28.641  1.00  0.00    -0.369 N 
ATOM     17  C   UNL     1      15.576  12.709  25.492  1.00  0.00     0.044 C 
ATOM     18  C   UNL     1      17.037  17.987  27.208  1.00  0.00     0.167 C 
ATOM     19  H   UNL     1      15.067  15.516  29.240  1.00  0.00     0.159 HD
ATOM     20  H   UNL     1      15.710  17.060  28.907  1.00  0.00     0.159 HD
ENDBRANCH   1   8
BRANCH   3  21
ATOM     21  N   UNL     1      20.729  12.666  23.847  1.00  0.00    -0.321 N 
ATOM     22  C   UNL     1      20.710  11.557  23.020  1.00  0.00     0.274 C 
ATOM     23  O   UNL     1      20.138  10.503  23.268  1.00  0.00    -0.267 OA
ATOM     24  H   UNL     1      21.324  13.399  23.568  1.00  0.00     0.170 HD
BRANCH  22  25
ATOM     25  C   UNL     1      21.423  11.716  21.730  1.00  0.00     0.128 A 
ATOM     26  N   UNL     1      21.633  10.599  21.026  1.00  0.00    -0.248 NA
ATOM     27  C   UNL     1      21.823  12.974  21.312  1.00  0.00     0.037 A 
ATOM     28  C   UNL     1      22.281  10.718  19.855  1.00  0.00     0.151 A 
ATOM     29  C   UNL     1      22.482  13.065  20.099  1.00  0.00     0.043 A 
ATOM     30  C   UNL     1      22.722  11.924  19.359  1.00  0.00     0.141 A 
ATOM     31  F   UNL     1      23.350  11.964  18.171  1.00  0.00    -0.205 F 
ENDBRANCH  22  25
ENDBRANCH   3  21
TORSDOF 3
ENDMDL
MODEL 16
REMARK VINA RESULT:    -7.236      3.671      7.464
REMARK INTER + INTRA:          -8.849
REMARK INTER:                  -8.820
REMARK INTRA:                  -0.029
REMARK UNBOUND:                -0.344
REMARK SMILES CN1C(N)=N[C@](C)(c2cc(NC(=O)c3ccc(F)cn3)ccc2F)CS1(=O)=O
REMARK SMILES IDX 8 1 9 2 10 3 21 4 22 5 23 6 24 7 6 8 25 9 5 10 26 11 3 12
REMARK SMILES IDX 27 13 2 14 28 15 4 16 7 17 1 18 11 21 12 22 13 23 14 25
REMARK SMILES IDX 20 26 15 27 19 28 16 29 17 30 18 31
REMARK H PARENT 4 19 4 20 11 24
ROOT
ATOM      1  C   UNL     1      28.016  13.166  22.597  1.00  0.00     0.018 A 
ATOM      2  C   UNL     1      26.808  12.835  23.208  1.00  0.00     0.035 A 
ATOM      3  C   UNL     1      26.412  13.390  24.404  1.00  0.00     0.042 A 
ATOM      4  C   UNL     1      27.230  14.298  25.064  1.00  0.00     0.029 A 
ATOM      5  C   UNL     1      28.433  14.640  24.470  1.00  0.00     0.042 A 
ATOM      6  C   UNL     1      28.802  14.100  23.254  1.00  0.00     0.129 A 
ATOM      7  F   UNL     1      29.974  14.474  22.679  1.00  0.00    -0.207 F 
ENDROOT
BRANCH   1   8
ATOM      8  C   UNL     1      28.424  12.538  21.273  1.00  0.00     0.105 C 
ATOM      9  C   UNL     1      28.626  13.514  20.136  1.00  0.00     0.195 C 
ATOM     10  N   UNL     1      27.508  11.474  20.865  1.00  0.00    -0.240 NA
ATOM     11  S   UNL     1      27.104  14.335  19.737  1.00  0.00     0.239 S 
ATOM     12  C   UNL     1      26.383  11.734  20.273  1.00  0.00     0.205 C 
ATOM     13  O   UNL     1      27.184  14.696  18.333  1.00  0.00    -0.206 OA
ATOM     14  N   UNL     1      25.991  13.028  19.863  1.00  0.00    -0.243 N 
ATOM     15  O   UNL     1      26.699  15.230  20.775  1.00  0.00    -0.206 OA
ATOM     16  N   UNL     1      25.477  10.755  19.965  1.00  0.00    -0.369 N 
ATOM     17  C   UNL     1      29.749  11.794  21.467  1.00  0.00     0.044 C 
ATOM     18  C   UNL     1      24.658  13.325  19.304  1.00  0.00     0.167 C 
ATOM     19  H   UNL     1      25.661   9.819  20.209  1.00  0.00     0.159 HD
ATOM     20  H   UNL     1      24.641  10.987  19.498  1.00  0.00     0.159 HD
ENDBRANCH   1   8
BRANCH   3  21
ATOM     21  N   UNL     1      25.175  12.970  24.912  1.00  0.00    -0.321 N 
ATOM     22  C   UNL     1      24.038  12.610  24.210  1.00  0.00     0.274 C 
ATOM     23  O   UNL     1      23.891  12.727  23.001  1.00  0.00    -0.267 OA
ATOM     24  H   UNL     1      25.107  12.926  25.893  1.00  0.00     0.170 HD
BRANCH  22  25
ATOM     25  C   UNL     1      22.955  12.008  25.025  1.00  0.00     0.128 A 
ATOM     26  N   UNL     1      22.726  12.572  26.215  1.00  0.00    -0.248 NA
ATOM     27  C   UNL     1      22.240  10.929  24.536  1.00  0.00     0.037 A 
ATOM     28  C   UNL     1      21.752  12.042  26.974  1.00  0.00     0.151 A 
ATOM     29  C   UNL     1      21.240  10.408  25.338  1.00  0.00     0.043 A 
ATOM     30  C   UNL     1      20.991  10.966  26.577  1.00  0.00     0.141 A 
ATOM     31  F   UNL     1      20.024  10.500  27.386  1.00  0.00    -0.205 F 
ENDBRANCH  22  25
ENDBRANCH   3  21
TORSDOF 3
ENDMDL
MODEL 17
REMARK VINA RESULT:    -7.199      4.018      7.788
REMARK INTER + INTRA:          -8.806
REMARK INTER:                  -8.597
REMARK INTRA:                  -0.208
REMARK UNBOUND:                -0.344
REMARK SMILES CN1C(N)=N[C@](C)(c2cc(NC(=O)c3ccc(F)cn3)ccc2F)CS1(=O)=O
REMARK SMILES IDX 8 1 9 2 10 3 21 4 22 5 23 6 24 7 6 8 25 9 5 10 26 11 3 12
REMARK SMILES IDX 27 13 2 14 28 15 4 16 7 17 1 18 11 21 12 22 13 23 14 25
REMARK SMILES IDX 20 26 15 27 19 28 16 29 17 30 18 31
REMARK H PARENT 4 19 4 20 11 24
ROOT
ATOM      1  C   UNL     1      28.820  13.172  20.936  1.00  0.00     0.018 A 
ATOM      2  C   UNL     1      27.469  12.981  21.223  1.00  0.00     0.035 A 
ATOM      3  C   UNL     1      26.897  11.730  21.277  1.00  0.00     0.042 A 
ATOM      4  C   UNL     1      27.659  10.597  21.019  1.00  0.00     0.029 A 
ATOM      5  C   UNL     1      29.002  10.767  20.736  1.00  0.00     0.042 A 
ATOM      6  C   UNL     1      29.569  12.026  20.717  1.00  0.00     0.129 A 
ATOM      7  F   UNL     1      30.896  12.164  20.465  1.00  0.00    -0.207 F 
ENDROOT
BRANCH   1   8
ATOM      8  C   UNL     1      29.422  14.567  20.887  1.00  0.00     0.105 C 
ATOM      9  C   UNL     1      30.462  14.854  21.948  1.00  0.00     0.195 C 
ATOM     10  N   UNL     1      28.396  15.609  20.896  1.00  0.00    -0.240 NA
ATOM     11  S   UNL     1      29.739  14.787  23.568  1.00  0.00     0.239 S 
ATOM     12  C   UNL     1      27.837  16.005  21.997  1.00  0.00     0.205 C 
ATOM     13  O   UNL     1      30.528  15.668  24.410  1.00  0.00    -0.206 OA
ATOM     14  N   UNL     1      28.233  15.570  23.281  1.00  0.00    -0.243 N 
ATOM     15  O   UNL     1      29.368  13.453  23.926  1.00  0.00    -0.206 OA
ATOM     16  N   UNL     1      26.814  16.915  22.010  1.00  0.00    -0.369 N 
ATOM     17  C   UNL     1      30.101  14.765  19.529  1.00  0.00     0.044 C 
ATOM     18  C   UNL     1      27.507  15.934  24.514  1.00  0.00     0.167 C 
ATOM     19  H   UNL     1      26.467  17.278  21.163  1.00  0.00     0.159 HD
ATOM     20  H   UNL     1      26.425  17.207  22.866  1.00  0.00     0.159 HD
ENDBRANCH   1   8
BRANCH   3  21
ATOM     21  N   UNL     1      25.529  11.677  21.573  1.00  0.00    -0.321 N 
ATOM     22  C   UNL     1      24.465  11.567  20.695  1.00  0.00     0.274 C 
ATOM     23  O   UNL     1      24.550  11.629  19.475  1.00  0.00    -0.267 OA
ATOM     24  H   UNL     1      25.295  11.724  22.528  1.00  0.00     0.170 HD
BRANCH  22  25
ATOM     25  C   UNL     1      23.146  11.322  21.326  1.00  0.00     0.128 A 
ATOM     26  N   UNL     1      22.792  10.043  21.482  1.00  0.00    -0.248 NA
ATOM     27  C   UNL     1      22.362  12.391  21.725  1.00  0.00     0.037 A 
ATOM     28  C   UNL     1      21.599   9.796  22.048  1.00  0.00     0.151 A 
ATOM     29  C   UNL     1      21.141  12.105  22.310  1.00  0.00     0.043 A 
ATOM     30  C   UNL     1      20.747  10.790  22.472  1.00  0.00     0.141 A 
ATOM     31  F   UNL     1      19.575  10.464  23.043  1.00  0.00    -0.205 F 
ENDBRANCH  22  25
ENDBRANCH   3  21
TORSDOF 3
ENDMDL
MODEL 18
REMARK VINA RESULT:    -7.180      5.573      8.148
REMARK INTER + INTRA:          -8.783
REMARK INTER:                  -8.406
REMARK INTRA:                  -0.378
REMARK UNBOUND:                -0.344
REMARK SMILES CN1C(N)=N[C@](C)(c2cc(NC(=O)c3ccc(F)cn3)ccc2F)CS1(=O)=O
REMARK SMILES IDX 8 1 9 2 10 3 21 4 22 5 23 6 24 7 6 8 25 9 5 10 26 11 3 12
REMARK SMILES IDX 27 13 2 14 28 15 4 16 7 17 1 18 11 21 12 22 13 23 14 25
REMARK SMILES IDX 20 26 15 27 19 28 16 29 17 30 18 31
REMARK H PARENT 4 19 4 20 11 24
ROOT
ATOM      1  C   UNL     1      27.012  12.638  20.217  1.00  0.00     0.018 A 
ATOM      2  C   UNL     1      27.295  13.506  19.163  1.00  0.00     0.035 A 
ATOM      3  C   UNL     1      26.308  14.159  18.461  1.00  0.00     0.042 A 
ATOM      4  C   UNL     1      24.970  13.952  18.772  1.00  0.00     0.029 A 
ATOM      5  C   UNL     1      24.670  13.097  19.817  1.00  0.00     0.042 A 
ATOM      6  C   UNL     1      25.672  12.473  20.533  1.00  0.00     0.129 A 
ATOM      7  F   UNL     1      25.351  11.661  21.573  1.00  0.00    -0.207 F 
ENDROOT
BRANCH   1   8
ATOM      8  C   UNL     1      28.125  11.933  20.976  1.00  0.00     0.105 C 
ATOM      9  C   UNL     1      28.009  11.990  22.483  1.00  0.00     0.195 C 
ATOM     10  N   UNL     1      29.449  12.390  20.557  1.00  0.00    -0.240 NA
ATOM     11  S   UNL     1      28.131  13.665  23.058  1.00  0.00     0.239 S 
ATOM     12  C   UNL     1      29.971  13.484  21.020  1.00  0.00     0.205 C 
ATOM     13  O   UNL     1      28.667  13.601  24.406  1.00  0.00    -0.206 OA
ATOM     14  N   UNL     1      29.383  14.264  22.040  1.00  0.00    -0.243 N 
ATOM     15  O   UNL     1      26.987  14.436  22.684  1.00  0.00    -0.206 OA
ATOM     16  N   UNL     1      31.170  13.969  20.571  1.00  0.00    -0.369 N 
ATOM     17  C   UNL     1      28.133  10.453  20.582  1.00  0.00     0.044 C 
ATOM     18  C   UNL     1      29.925  15.569  22.469  1.00  0.00     0.167 C 
ATOM     19  H   UNL     1      31.658  13.493  19.860  1.00  0.00     0.159 HD
ATOM     20  H   UNL     1      31.545  14.793  20.959  1.00  0.00     0.159 HD
ENDBRANCH   1   8
BRANCH   3  21
ATOM     21  N   UNL     1      26.728  15.001  17.424  1.00  0.00    -0.321 N 
ATOM     22  C   UNL     1      27.293  16.261  17.518  1.00  0.00     0.274 C 
ATOM     23  O   UNL     1      27.400  16.909  18.551  1.00  0.00    -0.267 OA
ATOM     24  H   UNL     1      26.607  14.652  16.511  1.00  0.00     0.170 HD
BRANCH  22  25
ATOM     25  C   UNL     1      27.826  16.812  16.249  1.00  0.00     0.128 A 
ATOM     26  N   UNL     1      27.428  18.047  15.925  1.00  0.00    -0.248 NA
ATOM     27  C   UNL     1      28.695  16.058  15.479  1.00  0.00     0.037 A 
ATOM     28  C   UNL     1      27.895  18.566  14.777  1.00  0.00     0.151 A 
ATOM     29  C   UNL     1      29.164  16.622  14.305  1.00  0.00     0.043 A 
ATOM     30  C   UNL     1      28.758  17.892  13.942  1.00  0.00     0.141 A 
ATOM     31  F   UNL     1      29.193  18.484  12.817  1.00  0.00    -0.205 F 
ENDBRANCH  22  25
ENDBRANCH   3  21
TORSDOF 3
ENDMDL
MODEL 19
REMARK VINA RESULT:    -7.171      3.649      7.319
REMARK INTER + INTRA:          -8.773
REMARK INTER:                  -9.295
REMARK INTRA:                   0.522
REMARK UNBOUND:                -0.344
REMARK SMILES CN1C(N)=N[C@](C)(c2cc(NC(=O)c3ccc(F)cn3)ccc2F)CS1(=O)=O
REMARK SMILES IDX 8 1 9 2 10 3 21 4 22 5 23 6 24 7 6 8 25 9 5 10 26 11 3 12
REMARK SMILES IDX 27 13 2 14 28 15 4 16 7 17 1 18 11 21 12 22 13 23 14 25
REMARK SMILES IDX 20 26 15 27 19 28 16 29 17 30 18 31
REMARK H PARENT 4 19 4 20 11 24
ROOT
ATOM      1  C   UNL     1      24.532  12.416  20.004  1.00  0.00     0.018 A 
ATOM      2  C   UNL     1      23.743  12.340  21.151  1.00  0.00     0.035 A 
ATOM      3  C   UNL     1      22.450  12.810  21.188  1.00  0.00     0.042 A 
ATOM      4  C   UNL     1      21.886  13.407  20.067  1.00  0.00     0.029 A 
ATOM      5  C   UNL     1      22.653  13.487  18.918  1.00  0.00     0.042 A 
ATOM      6  C   UNL     1      23.938  12.983  18.887  1.00  0.00     0.129 A 
ATOM      7  F   UNL     1      24.659  13.048  17.738  1.00  0.00    -0.207 F 
ENDROOT
BRANCH   1   8
ATOM      8  C   UNL     1      25.957  11.884  19.994  1.00  0.00     0.105 C 
ATOM      9  C   UNL     1      26.568  11.666  21.360  1.00  0.00     0.195 C 
ATOM     10  N   UNL     1      26.843  12.707  19.173  1.00  0.00    -0.240 NA
ATOM     11  S   UNL     1      26.722  13.204  22.232  1.00  0.00     0.239 S 
ATOM     12  C   UNL     1      27.369  13.803  19.625  1.00  0.00     0.205 C 
ATOM     13  O   UNL     1      27.839  13.052  23.146  1.00  0.00    -0.206 OA
ATOM     14  N   UNL     1      27.240  14.243  20.962  1.00  0.00    -0.243 N 
ATOM     15  O   UNL     1      25.445  13.729  22.604  1.00  0.00    -0.206 OA
ATOM     16  N   UNL     1      28.129  14.628  18.840  1.00  0.00    -0.369 N 
ATOM     17  C   UNL     1      25.976  10.534  19.272  1.00  0.00     0.044 C 
ATOM     18  C   UNL     1      27.738  15.552  21.430  1.00  0.00     0.167 C 
ATOM     19  H   UNL     1      28.277  14.406  17.892  1.00  0.00     0.159 HD
ATOM     20  H   UNL     1      28.527  15.443  19.223  1.00  0.00     0.159 HD
ENDBRANCH   1   8
BRANCH   3  21
ATOM     21  N   UNL     1      21.767  12.675  22.404  1.00  0.00    -0.321 N 
ATOM     22  C   UNL     1      20.959  11.633  22.822  1.00  0.00     0.274 C 
ATOM     23  O   UNL     1      20.601  10.695  22.123  1.00  0.00    -0.267 OA
ATOM     24  H   UNL     1      21.877  13.417  23.042  1.00  0.00     0.170 HD
BRANCH  22  25
ATOM     25  C   UNL     1      20.549  11.682  24.247  1.00  0.00     0.128 A 
ATOM     26  N   UNL     1      20.908  10.640  25.004  1.00  0.00    -0.248 NA
ATOM     27  C   UNL     1      19.844  12.773  24.725  1.00  0.00     0.037 A 
ATOM     28  C   UNL     1      20.544  10.660  26.296  1.00  0.00     0.151 A 
ATOM     29  C   UNL     1      19.488  12.767  26.063  1.00  0.00     0.043 A 
ATOM     30  C   UNL     1      19.836  11.697  26.863  1.00  0.00     0.141 A 
ATOM     31  F   UNL     1      19.521  11.651  28.168  1.00  0.00    -0.205 F 
ENDBRANCH  22  25
ENDBRANCH   3  21
TORSDOF 3
ENDMDL
MODEL 20
REMARK VINA RESULT:    -7.118      3.843      7.586
REMARK INTER + INTRA:          -8.710
REMARK INTER:                  -9.074
REMARK INTRA:                   0.364
REMARK UNBOUND:                -0.344
REMARK SMILES CN1C(N)=N[C@](C)(c2cc(NC(=O)c3ccc(F)cn3)ccc2F)CS1(=O)=O
REMARK SMILES IDX 8 1 9 2 10 3 21 4 22 5 23 6 24 7 6 8 25 9 5 10 26 11 3 12
REMARK SMILES IDX 27 13 2 14 28 15 4 16 7 17 1 18 11 21 12 22 13 23 14 25
REMARK SMILES IDX 20 26 15 27 19 28 16 29 17 30 18 31
REMARK H PARENT 4 19 4 20 11 24
ROOT
ATOM      1  C   UNL     1      27.927  13.286  20.725  1.00  0.00     0.018 A 
ATOM      2  C   UNL     1      26.657  12.799  21.028  1.00  0.00     0.035 A 
ATOM      3  C   UNL     1      25.540  13.155  20.306  1.00  0.00     0.042 A 
ATOM      4  C   UNL     1      25.643  14.046  19.246  1.00  0.00     0.029 A 
ATOM      5  C   UNL     1      26.897  14.537  18.928  1.00  0.00     0.042 A 
ATOM      6  C   UNL     1      28.013  14.146  19.641  1.00  0.00     0.129 A 
ATOM      7  F   UNL     1      29.237  14.620  19.290  1.00  0.00    -0.207 F 
ENDROOT
BRANCH   1   8
ATOM      8  C   UNL     1      29.143  12.871  21.540  1.00  0.00     0.105 C 
ATOM      9  C   UNL     1      28.863  12.558  22.993  1.00  0.00     0.195 C 
ATOM     10  N   UNL     1      30.230  13.842  21.436  1.00  0.00    -0.240 NA
ATOM     11  S   UNL     1      28.284  14.003  23.846  1.00  0.00     0.239 S 
ATOM     12  C   UNL     1      30.251  14.922  22.154  1.00  0.00     0.205 C 
ATOM     13  O   UNL     1      28.666  13.843  25.238  1.00  0.00    -0.206 OA
ATOM     14  N   UNL     1      29.312  15.208  23.171  1.00  0.00    -0.243 N 
ATOM     15  O   UNL     1      26.977  14.384  23.410  1.00  0.00    -0.206 OA
ATOM     16  N   UNL     1      31.216  15.882  22.004  1.00  0.00    -0.369 N 
ATOM     17  C   UNL     1      29.748  11.610  20.917  1.00  0.00     0.044 C 
ATOM     18  C   UNL     1      29.275  16.494  23.894  1.00  0.00     0.167 C 
ATOM     19  H   UNL     1      31.916  15.773  21.321  1.00  0.00     0.159 HD
ATOM     20  H   UNL     1      31.210  16.681  22.580  1.00  0.00     0.159 HD
ENDBRANCH   1   8
BRANCH   3  21
ATOM     21  N   UNL     1      24.323  12.596  20.717  1.00  0.00    -0.321 N 
ATOM     22  C   UNL     1      23.557  11.642  20.071  1.00  0.00     0.274 C 
ATOM     23  O   UNL     1      23.766  11.216  18.943  1.00  0.00    -0.267 OA
ATOM     24  H   UNL     1      23.968  12.924  21.575  1.00  0.00     0.170 HD
BRANCH  22  25
ATOM     25  C   UNL     1      22.425  11.098  20.861  1.00  0.00     0.128 A 
ATOM     26  N   UNL     1      22.082  11.784  21.956  1.00  0.00    -0.248 NA
ATOM     27  C   UNL     1      21.782   9.945  20.444  1.00  0.00     0.037 A 
ATOM     28  C   UNL     1      21.063  11.309  22.690  1.00  0.00     0.151 A 
ATOM     29  C   UNL     1      20.732   9.483  21.218  1.00  0.00     0.043 A 
ATOM     30  C   UNL     1      20.366  10.168  22.360  1.00  0.00     0.141 A 
ATOM     31  F   UNL     1      19.347   9.763  23.137  1.00  0.00    -0.205 F 
ENDBRANCH  22  25
ENDBRANCH   3  21
TORSDOF 3
ENDMDL
