MODEL 1
REMARK VINA RESULT:    -6.927      0.000      0.000
REMARK INTER + INTRA:          -7.781
REMARK INTER:                  -7.737
REMARK INTRA:                  -0.044
REMARK UNBOUND:                -0.044
REMARK SMILES O=C(N[C@H]1CN2CCC1CC2)c1cc2cccc(Cl)c2s1
REMARK SMILES IDX 12 1 13 2 14 3 20 4 18 5 17 6 16 7 15 8 21 9 19 10 2 11 3 12
REMARK SMILES IDX 1 13 4 15 9 16 5 17 8 18 10 19 6 20 7 21 11 22
REMARK H PARENT 3 14
ROOT
ATOM      1  C   UNL     1     141.518 140.466  95.821  1.00  0.00     0.093 A 
ATOM      2  C   UNL     1     140.233 140.053  95.917  1.00  0.00     0.034 A 
ATOM      3  C   UNL     1     139.286 140.855  96.639  1.00  0.00    -0.005 A 
ATOM      4  C   UNL     1     139.861 142.053  97.190  1.00  0.00     0.054 A 
ATOM      5  C   UNL     1     139.071 142.919  97.907  1.00  0.00     0.058 A 
ATOM      6  C   UNL     1     137.716 142.632  98.096  1.00  0.00     0.022 A 
ATOM      7  C   UNL     1     137.159 141.460  97.557  1.00  0.00     0.002 A 
ATOM      8  C   UNL     1     137.958 140.579  96.829  1.00  0.00     0.010 A 
ATOM      9  S   UNL     1     141.605 141.975  96.683  1.00  0.00    -0.128 S 
ATOM     10  Cl  UNL     1     139.773 144.407  98.596  1.00  0.00    -0.083 Cl
ENDROOT
BRANCH   1  11
ATOM     11  C   UNL     1     142.644 139.726  95.090  1.00  0.00     0.261 C 
ATOM     12  N   UNL     1     142.560 139.480  93.664  1.00  0.00    -0.347 N 
ATOM     13  O   UNL     1     143.589 139.352  95.697  1.00  0.00    -0.268 OA
ATOM     14  H   UNL     1     141.777 139.786  93.152  1.00  0.00     0.164 HD
BRANCH  12  15
ATOM     15  C   UNL     1     143.663 138.763  92.983  1.00  0.00     0.099 C 
ATOM     16  C   UNL     1     144.859 139.600  92.950  1.00  0.00     0.015 C 
ATOM     17  C   UNL     1     143.261 138.440  91.530  1.00  0.00     0.109 C 
ATOM     18  C   UNL     1     145.891 138.894  92.244  1.00  0.00     0.021 C 
ATOM     19  C   UNL     1     144.546 140.820  92.210  1.00  0.00     0.021 C 
ATOM     20  N   UNL     1     144.158 139.006  90.619  1.00  0.00    -0.301 NA
ATOM     21  C   UNL     1     145.435 138.548  90.857  1.00  0.00     0.085 C 
ATOM     22  C   UNL     1     144.136 140.417  90.743  1.00  0.00     0.085 C 
ENDBRANCH  12  15
ENDBRANCH   1  11
TORSDOF 2
ENDMDL
MODEL 2
REMARK VINA RESULT:    -6.586      1.740      2.345
REMARK INTER + INTRA:          -7.401
REMARK INTER:                  -7.129
REMARK INTRA:                  -0.271
REMARK UNBOUND:                -0.044
REMARK SMILES O=C(N[C@H]1CN2CCC1CC2)c1cc2cccc(Cl)c2s1
REMARK SMILES IDX 12 1 13 2 14 3 20 4 18 5 17 6 16 7 15 8 21 9 19 10 2 11 3 12
REMARK SMILES IDX 1 13 4 15 9 16 5 17 8 18 10 19 6 20 7 21 11 22
REMARK H PARENT 3 14
ROOT
ATOM      1  C   UNL     1     141.377 141.246  95.787  1.00  0.00     0.093 A 
ATOM      2  C   UNL     1     141.076 142.303  96.576  1.00  0.00     0.034 A 
ATOM      3  C   UNL     1     139.794 142.361  97.219  1.00  0.00    -0.005 A 
ATOM      4  C   UNL     1     138.960 141.226  96.926  1.00  0.00     0.054 A 
ATOM      5  C   UNL     1     137.703 141.145  97.475  1.00  0.00     0.058 A 
ATOM      6  C   UNL     1     137.243 142.164  98.315  1.00  0.00     0.022 A 
ATOM      7  C   UNL     1     138.060 143.272  98.598  1.00  0.00     0.002 A 
ATOM      8  C   UNL     1     139.337 143.357  98.042  1.00  0.00     0.010 A 
ATOM      9  S   UNL     1     139.981 140.207  95.820  1.00  0.00    -0.128 S 
ATOM     10  Cl  UNL     1     136.660 139.744  97.118  1.00  0.00    -0.083 Cl
ENDROOT
BRANCH   1  11
ATOM     11  C   UNL     1     142.695 141.037  95.032  1.00  0.00     0.261 C 
ATOM     12  N   UNL     1     142.712 140.349  93.756  1.00  0.00    -0.347 N 
ATOM     13  O   UNL     1     143.706 141.440  95.498  1.00  0.00    -0.268 OA
ATOM     14  H   UNL     1     141.876 140.010  93.363  1.00  0.00     0.164 HD
BRANCH  12  15
ATOM     15  C   UNL     1     143.999 140.161  93.048  1.00  0.00     0.099 C 
ATOM     16  C   UNL     1     143.775 140.123  91.605  1.00  0.00     0.015 C 
ATOM     17  C   UNL     1     144.641 138.825  93.470  1.00  0.00     0.109 C 
ATOM     18  C   UNL     1     145.034 139.894  90.953  1.00  0.00     0.021 C 
ATOM     19  C   UNL     1     142.890 139.000  91.307  1.00  0.00     0.021 C 
ATOM     20  N   UNL     1     144.847 137.992  92.368  1.00  0.00    -0.301 NA
ATOM     21  C   UNL     1     145.650 138.616  91.438  1.00  0.00     0.085 C 
ATOM     22  C   UNL     1     143.602 137.673  91.772  1.00  0.00     0.085 C 
ENDBRANCH  12  15
ENDBRANCH   1  11
TORSDOF 2
ENDMDL
MODEL 3
REMARK VINA RESULT:    -6.047      5.792      6.923
REMARK INTER + INTRA:          -6.799
REMARK INTER:                  -6.485
REMARK INTRA:                  -0.314
REMARK UNBOUND:                -0.044
REMARK SMILES O=C(N[C@H]1CN2CCC1CC2)c1cc2cccc(Cl)c2s1
REMARK SMILES IDX 12 1 13 2 14 3 20 4 18 5 17 6 16 7 15 8 21 9 19 10 2 11 3 12
REMARK SMILES IDX 1 13 4 15 9 16 5 17 8 18 10 19 6 20 7 21 11 22
REMARK H PARENT 3 14
ROOT
ATOM      1  C   UNL     1     145.401 142.685  94.438  1.00  0.00     0.093 A 
ATOM      2  C   UNL     1     144.346 142.908  95.255  1.00  0.00     0.034 A 
ATOM      3  C   UNL     1     143.282 141.947  95.312  1.00  0.00    -0.005 A 
ATOM      4  C   UNL     1     143.493 140.815  94.451  1.00  0.00     0.054 A 
ATOM      5  C   UNL     1     142.555 139.811  94.403  1.00  0.00     0.058 A 
ATOM      6  C   UNL     1     141.403 139.897  95.191  1.00  0.00     0.022 A 
ATOM      7  C   UNL     1     141.200 141.006  96.031  1.00  0.00     0.002 A 
ATOM      8  C   UNL     1     142.151 142.025  96.081  1.00  0.00     0.010 A 
ATOM      9  S   UNL     1     145.090 141.161  93.656  1.00  0.00    -0.128 S 
ATOM     10  Cl  UNL     1     142.805 138.404  93.338  1.00  0.00    -0.083 Cl
ENDROOT
BRANCH   1  11
ATOM     11  C   UNL     1     146.611 143.610  94.261  1.00  0.00     0.261 C 
ATOM     12  N   UNL     1     147.896 143.261  94.834  1.00  0.00    -0.347 N 
ATOM     13  O   UNL     1     146.492 144.619  93.654  1.00  0.00    -0.268 OA
ATOM     14  H   UNL     1     148.002 142.424  95.343  1.00  0.00     0.164 HD
BRANCH  12  15
ATOM     15  C   UNL     1     149.048 144.172  94.649  1.00  0.00     0.099 C 
ATOM     16  C   UNL     1     150.191 143.433  94.121  1.00  0.00     0.015 C 
ATOM     17  C   UNL     1     149.455 144.786  96.003  1.00  0.00     0.109 C 
ATOM     18  C   UNL     1     151.301 144.336  93.998  1.00  0.00     0.021 C 
ATOM     19  C   UNL     1     150.548 142.392  95.081  1.00  0.00     0.021 C 
ATOM     20  N   UNL     1     150.785 144.489  96.314  1.00  0.00    -0.301 NA
ATOM     21  C   UNL     1     151.624 144.954  95.326  1.00  0.00     0.085 C 
ATOM     22  C   UNL     1     150.942 143.087  96.440  1.00  0.00     0.085 C 
ENDBRANCH  12  15
ENDBRANCH   1  11
TORSDOF 2
ENDMDL
MODEL 4
REMARK VINA RESULT:    -5.919      6.358      9.429
REMARK INTER + INTRA:          -6.655
REMARK INTER:                  -6.354
REMARK INTRA:                  -0.301
REMARK UNBOUND:                -0.044
REMARK SMILES O=C(N[C@H]1CN2CCC1CC2)c1cc2cccc(Cl)c2s1
REMARK SMILES IDX 12 1 13 2 14 3 20 4 18 5 17 6 16 7 15 8 21 9 19 10 2 11 3 12
REMARK SMILES IDX 1 13 4 15 9 16 5 17 8 18 10 19 6 20 7 21 11 22
REMARK H PARENT 3 14
ROOT
ATOM      1  C   UNL     1     141.079 139.515  87.491  1.00  0.00     0.093 A 
ATOM      2  C   UNL     1     141.785 139.466  86.338  1.00  0.00     0.034 A 
ATOM      3  C   UNL     1     141.242 138.770  85.207  1.00  0.00    -0.005 A 
ATOM      4  C   UNL     1     139.950 138.192  85.463  1.00  0.00     0.054 A 
ATOM      5  C   UNL     1     139.306 137.496  84.468  1.00  0.00     0.058 A 
ATOM      6  C   UNL     1     139.910 137.355  83.214  1.00  0.00     0.022 A 
ATOM      7  C   UNL     1     141.172 137.921  82.968  1.00  0.00     0.002 A 
ATOM      8  C   UNL     1     141.828 138.628  83.977  1.00  0.00     0.010 A 
ATOM      9  S   UNL     1     139.605 138.639  87.191  1.00  0.00    -0.128 S 
ATOM     10  Cl  UNL     1     137.705 136.774  84.775  1.00  0.00    -0.083 Cl
ENDROOT
BRANCH   1  11
ATOM     11  C   UNL     1     141.519 140.212  88.783  1.00  0.00     0.261 C 
ATOM     12  N   UNL     1     142.588 139.659  89.593  1.00  0.00    -0.347 N 
ATOM     13  O   UNL     1     140.979 141.209  89.124  1.00  0.00    -0.268 OA
ATOM     14  H   UNL     1     143.040 138.829  89.318  1.00  0.00     0.164 HD
BRANCH  12  15
ATOM     15  C   UNL     1     142.993 140.352  90.837  1.00  0.00     0.099 C 
ATOM     16  C   UNL     1     144.430 140.201  91.048  1.00  0.00     0.015 C 
ATOM     17  C   UNL     1     142.261 139.735  92.045  1.00  0.00     0.109 C 
ATOM     18  C   UNL     1     144.781 140.844  92.283  1.00  0.00     0.021 C 
ATOM     19  C   UNL     1     144.729 138.776  91.169  1.00  0.00     0.021 C 
ATOM     20  N   UNL     1     143.166 139.246  92.989  1.00  0.00    -0.301 NA
ATOM     21  C   UNL     1     144.001 140.254  93.421  1.00  0.00     0.085 C 
ATOM     22  C   UNL     1     143.943 138.210  92.413  1.00  0.00     0.085 C 
ENDBRANCH  12  15
ENDBRANCH   1  11
TORSDOF 2
ENDMDL
MODEL 5
REMARK VINA RESULT:    -5.898      6.303      7.562
REMARK INTER + INTRA:          -6.632
REMARK INTER:                  -6.318
REMARK INTRA:                  -0.313
REMARK UNBOUND:                -0.044
REMARK SMILES O=C(N[C@H]1CN2CCC1CC2)c1cc2cccc(Cl)c2s1
REMARK SMILES IDX 12 1 13 2 14 3 20 4 18 5 17 6 16 7 15 8 21 9 19 10 2 11 3 12
REMARK SMILES IDX 1 13 4 15 9 16 5 17 8 18 10 19 6 20 7 21 11 22
REMARK H PARENT 3 14
ROOT
ATOM      1  C   UNL     1     145.292 142.853  94.565  1.00  0.00     0.093 A 
ATOM      2  C   UNL     1     144.178 142.885  95.333  1.00  0.00     0.034 A 
ATOM      3  C   UNL     1     143.240 141.802  95.261  1.00  0.00    -0.005 A 
ATOM      4  C   UNL     1     143.632 140.772  94.336  1.00  0.00     0.054 A 
ATOM      5  C   UNL     1     142.829 139.670  94.164  1.00  0.00     0.058 A 
ATOM      6  C   UNL     1     141.638 139.556  94.888  1.00  0.00     0.022 A 
ATOM      7  C   UNL     1     141.258 140.565  95.790  1.00  0.00     0.002 A 
ATOM      8  C   UNL     1     142.072 141.685  95.966  1.00  0.00     0.010 A 
ATOM      9  S   UNL     1     145.212 141.367  93.662  1.00  0.00    -0.128 S 
ATOM     10  Cl  UNL     1     143.305 138.388  93.020  1.00  0.00    -0.083 Cl
ENDROOT
BRANCH   1  11
ATOM     11  C   UNL     1     146.385 143.928  94.525  1.00  0.00     0.261 C 
ATOM     12  N   UNL     1     146.809 144.594  95.741  1.00  0.00    -0.347 N 
ATOM     13  O   UNL     1     146.883 144.217  93.490  1.00  0.00    -0.268 OA
ATOM     14  H   UNL     1     146.397 144.361  96.604  1.00  0.00     0.164 HD
BRANCH  12  15
ATOM     15  C   UNL     1     147.866 145.628  95.673  1.00  0.00     0.099 C 
ATOM     16  C   UNL     1     148.703 145.566  96.868  1.00  0.00     0.015 C 
ATOM     17  C   UNL     1     147.227 147.030  95.606  1.00  0.00     0.109 C 
ATOM     18  C   UNL     1     149.687 146.610  96.792  1.00  0.00     0.021 C 
ATOM     19  C   UNL     1     147.859 145.813  98.034  1.00  0.00     0.021 C 
ATOM     20  N   UNL     1     147.649 147.830  96.670  1.00  0.00    -0.301 NA
ATOM     21  C   UNL     1     149.021 147.949  96.666  1.00  0.00     0.085 C 
ATOM     22  C   UNL     1     147.233 147.253  97.895  1.00  0.00     0.085 C 
ENDBRANCH  12  15
ENDBRANCH   1  11
TORSDOF 2
ENDMDL
MODEL 6
REMARK VINA RESULT:    -5.853      5.536      7.268
REMARK INTER + INTRA:          -6.582
REMARK INTER:                  -6.267
REMARK INTRA:                  -0.315
REMARK UNBOUND:                -0.044
REMARK SMILES O=C(N[C@H]1CN2CCC1CC2)c1cc2cccc(Cl)c2s1
REMARK SMILES IDX 12 1 13 2 14 3 20 4 18 5 17 6 16 7 15 8 21 9 19 10 2 11 3 12
REMARK SMILES IDX 1 13 4 15 9 16 5 17 8 18 10 19 6 20 7 21 11 22
REMARK H PARENT 3 14
ROOT
ATOM      1  C   UNL     1     145.292 143.002  94.794  1.00  0.00     0.093 A 
ATOM      2  C   UNL     1     145.567 141.965  93.969  1.00  0.00     0.034 A 
ATOM      3  C   UNL     1     144.623 140.891  93.847  1.00  0.00    -0.005 A 
ATOM      4  C   UNL     1     143.449 141.072  94.657  1.00  0.00     0.054 A 
ATOM      5  C   UNL     1     142.456 140.122  94.641  1.00  0.00     0.058 A 
ATOM      6  C   UNL     1     142.594 138.986  93.836  1.00  0.00     0.022 A 
ATOM      7  C   UNL     1     143.743 138.812  93.046  1.00  0.00     0.002 A 
ATOM      8  C   UNL     1     144.752 139.776  93.062  1.00  0.00     0.010 A 
ATOM      9  S   UNL     1     143.737 142.659  95.497  1.00  0.00    -0.128 S 
ATOM     10  Cl  UNL     1     140.997 140.335  95.642  1.00  0.00    -0.083 Cl
ENDROOT
BRANCH   1  11
ATOM     11  C   UNL     1     146.192 144.219  95.036  1.00  0.00     0.261 C 
ATOM     12  N   UNL     1     147.178 144.614  94.049  1.00  0.00    -0.347 N 
ATOM     13  O   UNL     1     146.082 144.839  96.039  1.00  0.00    -0.268 OA
ATOM     14  H   UNL     1     147.278 144.103  93.214  1.00  0.00     0.164 HD
BRANCH  12  15
ATOM     15  C   UNL     1     148.036 145.793  94.308  1.00  0.00     0.099 C 
ATOM     16  C   UNL     1     148.285 146.513  93.063  1.00  0.00     0.015 C 
ATOM     17  C   UNL     1     149.392 145.341  94.883  1.00  0.00     0.109 C 
ATOM     18  C   UNL     1     149.155 147.621  93.342  1.00  0.00     0.021 C 
ATOM     19  C   UNL     1     148.970 145.611  92.140  1.00  0.00     0.021 C 
ATOM     20  N   UNL     1     150.451 145.768  94.078  1.00  0.00    -0.301 NA
ATOM     21  C   UNL     1     150.437 147.140  93.955  1.00  0.00     0.085 C 
ATOM     22  C   UNL     1     150.339 145.182  92.793  1.00  0.00     0.085 C 
ENDBRANCH  12  15
ENDBRANCH   1  11
TORSDOF 2
ENDMDL
MODEL 7
REMARK VINA RESULT:    -5.796      6.330     10.274
REMARK INTER + INTRA:          -6.518
REMARK INTER:                  -6.195
REMARK INTRA:                  -0.323
REMARK UNBOUND:                -0.044
REMARK SMILES O=C(N[C@H]1CN2CCC1CC2)c1cc2cccc(Cl)c2s1
REMARK SMILES IDX 12 1 13 2 14 3 20 4 18 5 17 6 16 7 15 8 21 9 19 10 2 11 3 12
REMARK SMILES IDX 1 13 4 15 9 16 5 17 8 18 10 19 6 20 7 21 11 22
REMARK H PARENT 3 14
ROOT
ATOM      1  C   UNL     1     149.190 137.998  91.736  1.00  0.00     0.093 A 
ATOM      2  C   UNL     1     149.896 138.686  92.662  1.00  0.00     0.034 A 
ATOM      3  C   UNL     1     151.231 138.270  92.986  1.00  0.00    -0.005 A 
ATOM      4  C   UNL     1     151.663 137.119  92.240  1.00  0.00     0.054 A 
ATOM      5  C   UNL     1     152.922 136.608  92.444  1.00  0.00     0.058 A 
ATOM      6  C   UNL     1     153.775 137.209  93.374  1.00  0.00     0.022 A 
ATOM      7  C   UNL     1     153.349 138.334  94.102  1.00  0.00     0.002 A 
ATOM      8  C   UNL     1     152.071 138.854  93.896  1.00  0.00     0.010 A 
ATOM      9  S   UNL     1     150.235 136.717  91.189  1.00  0.00    -0.128 S 
ATOM     10  Cl  UNL     1     153.467 135.180  91.526  1.00  0.00    -0.083 Cl
ENDROOT
BRANCH   1  11
ATOM     11  C   UNL     1     147.760 138.312  91.282  1.00  0.00     0.261 C 
ATOM     12  N   UNL     1     146.673 138.340  92.241  1.00  0.00    -0.347 N 
ATOM     13  O   UNL     1     147.543 138.530  90.139  1.00  0.00    -0.268 OA
ATOM     14  H   UNL     1     146.844 138.157  93.192  1.00  0.00     0.164 HD
BRANCH  12  15
ATOM     15  C   UNL     1     145.300 138.646  91.776  1.00  0.00     0.099 C 
ATOM     16  C   UNL     1     145.027 140.072  91.927  1.00  0.00     0.015 C 
ATOM     17  C   UNL     1     144.273 137.867  92.621  1.00  0.00     0.109 C 
ATOM     18  C   UNL     1     143.676 140.326  91.512  1.00  0.00     0.021 C 
ATOM     19  C   UNL     1     145.146 140.415  93.342  1.00  0.00     0.021 C 
ATOM     20  N   UNL     1     143.376 138.733  93.252  1.00  0.00    -0.301 NA
ATOM     21  C   UNL     1     142.717 139.503  92.319  1.00  0.00     0.085 C 
ATOM     22  C   UNL     1     144.079 139.579  94.145  1.00  0.00     0.085 C 
ENDBRANCH  12  15
ENDBRANCH   1  11
TORSDOF 2
ENDMDL
MODEL 8
REMARK VINA RESULT:    -5.792      5.503      6.909
REMARK INTER + INTRA:          -6.513
REMARK INTER:                  -6.194
REMARK INTRA:                  -0.319
REMARK UNBOUND:                -0.044
REMARK SMILES O=C(N[C@H]1CN2CCC1CC2)c1cc2cccc(Cl)c2s1
REMARK SMILES IDX 12 1 13 2 14 3 20 4 18 5 17 6 16 7 15 8 21 9 19 10 2 11 3 12
REMARK SMILES IDX 1 13 4 15 9 16 5 17 8 18 10 19 6 20 7 21 11 22
REMARK H PARENT 3 14
ROOT
ATOM      1  C   UNL     1     145.218 143.052  94.744  1.00  0.00     0.093 A 
ATOM      2  C   UNL     1     145.147 141.900  94.038  1.00  0.00     0.034 A 
ATOM      3  C   UNL     1     144.053 141.000  94.265  1.00  0.00    -0.005 A 
ATOM      4  C   UNL     1     143.129 141.469  95.262  1.00  0.00     0.054 A 
ATOM      5  C   UNL     1     142.029 140.710  95.584  1.00  0.00     0.058 A 
ATOM      6  C   UNL     1     141.815 139.487  94.940  1.00  0.00     0.022 A 
ATOM      7  C   UNL     1     142.720 139.032  93.966  1.00  0.00     0.002 A 
ATOM      8  C   UNL     1     143.837 139.801  93.638  1.00  0.00     0.010 A 
ATOM      9  S   UNL     1     143.827 143.062  95.790  1.00  0.00    -0.128 S 
ATOM     10  Cl  UNL     1     140.879 141.281  96.820  1.00  0.00    -0.083 Cl
ENDROOT
BRANCH   1  11
ATOM     11  C   UNL     1     146.319 144.112  94.622  1.00  0.00     0.261 C 
ATOM     12  N   UNL     1     147.716 143.739  94.725  1.00  0.00    -0.347 N 
ATOM     13  O   UNL     1     146.023 145.245  94.444  1.00  0.00    -0.268 OA
ATOM     14  H   UNL     1     147.970 142.800  94.875  1.00  0.00     0.164 HD
BRANCH  12  15
ATOM     15  C   UNL     1     148.759 144.783  94.603  1.00  0.00     0.099 C 
ATOM     16  C   UNL     1     149.801 144.344  93.679  1.00  0.00     0.015 C 
ATOM     17  C   UNL     1     149.410 145.039  95.976  1.00  0.00     0.109 C 
ATOM     18  C   UNL     1     150.817 145.358  93.620  1.00  0.00     0.021 C 
ATOM     19  C   UNL     1     150.400 143.122  94.210  1.00  0.00     0.021 C 
ATOM     20  N   UNL     1     150.788 144.810  95.934  1.00  0.00    -0.301 NA
ATOM     21  C   UNL     1     151.379 145.616  94.986  1.00  0.00     0.085 C 
ATOM     22  C   UNL     1     151.035 143.453  95.614  1.00  0.00     0.085 C 
ENDBRANCH  12  15
ENDBRANCH   1  11
TORSDOF 2
ENDMDL
MODEL 9
REMARK VINA RESULT:    -5.754      4.006      5.784
REMARK INTER + INTRA:          -6.471
REMARK INTER:                  -6.199
REMARK INTRA:                  -0.272
REMARK UNBOUND:                -0.044
REMARK SMILES O=C(N[C@H]1CN2CCC1CC2)c1cc2cccc(Cl)c2s1
REMARK SMILES IDX 12 1 13 2 14 3 20 4 18 5 17 6 16 7 15 8 21 9 19 10 2 11 3 12
REMARK SMILES IDX 1 13 4 15 9 16 5 17 8 18 10 19 6 20 7 21 11 22
REMARK H PARENT 3 14
ROOT
ATOM      1  C   UNL     1     145.554 139.301  92.607  1.00  0.00     0.093 A 
ATOM      2  C   UNL     1     144.383 138.726  92.968  1.00  0.00     0.034 A 
ATOM      3  C   UNL     1     143.536 139.389  93.919  1.00  0.00    -0.005 A 
ATOM      4  C   UNL     1     144.071 140.641  94.381  1.00  0.00     0.054 A 
ATOM      5  C   UNL     1     143.367 141.388  95.294  1.00  0.00     0.058 A 
ATOM      6  C   UNL     1     142.135 140.926  95.768  1.00  0.00     0.022 A 
ATOM      7  C   UNL     1     141.615 139.702  95.315  1.00  0.00     0.002 A 
ATOM      8  C   UNL     1     142.329 138.942  94.388  1.00  0.00     0.010 A 
ATOM      9  S   UNL     1     145.652 140.795  93.495  1.00  0.00    -0.128 S 
ATOM     10  Cl  UNL     1     144.022 142.941  95.875  1.00  0.00    -0.083 Cl
ENDROOT
BRANCH   1  11
ATOM     11  C   UNL     1     146.566 138.724  91.611  1.00  0.00     0.261 C 
ATOM     12  N   UNL     1     147.838 138.203  92.071  1.00  0.00    -0.347 N 
ATOM     13  O   UNL     1     146.306 138.706  90.456  1.00  0.00    -0.268 OA
ATOM     14  H   UNL     1     148.063 138.216  93.029  1.00  0.00     0.164 HD
BRANCH  12  15
ATOM     15  C   UNL     1     148.798 137.651  91.088  1.00  0.00     0.099 C 
ATOM     16  C   UNL     1     149.619 136.619  91.715  1.00  0.00     0.015 C 
ATOM     17  C   UNL     1     149.732 138.768  90.581  1.00  0.00     0.109 C 
ATOM     18  C   UNL     1     150.567 136.139  90.749  1.00  0.00     0.021 C 
ATOM     19  C   UNL     1     150.355 137.227  92.820  1.00  0.00     0.021 C 
ATOM     20  N   UNL     1     151.071 138.462  90.836  1.00  0.00    -0.301 NA
ATOM     21  C   UNL     1     151.413 137.269  90.239  1.00  0.00     0.085 C 
ATOM     22  C   UNL     1     151.279 138.362  92.234  1.00  0.00     0.085 C 
ENDBRANCH  12  15
ENDBRANCH   1  11
TORSDOF 2
ENDMDL
MODEL 10
REMARK VINA RESULT:    -5.725      6.030      7.558
REMARK INTER + INTRA:          -6.438
REMARK INTER:                  -6.142
REMARK INTRA:                  -0.296
REMARK UNBOUND:                -0.044
REMARK SMILES O=C(N[C@H]1CN2CCC1CC2)c1cc2cccc(Cl)c2s1
REMARK SMILES IDX 12 1 13 2 14 3 20 4 18 5 17 6 16 7 15 8 21 9 19 10 2 11 3 12
REMARK SMILES IDX 1 13 4 15 9 16 5 17 8 18 10 19 6 20 7 21 11 22
REMARK H PARENT 3 14
ROOT
ATOM      1  C   UNL     1     145.342 142.988  94.600  1.00  0.00     0.093 A 
ATOM      2  C   UNL     1     145.282 141.837  93.890  1.00  0.00     0.034 A 
ATOM      3  C   UNL     1     144.190 140.932  94.106  1.00  0.00    -0.005 A 
ATOM      4  C   UNL     1     143.255 141.395  95.096  1.00  0.00     0.054 A 
ATOM      5  C   UNL     1     142.156 140.630  95.406  1.00  0.00     0.058 A 
ATOM      6  C   UNL     1     141.953 139.408  94.758  1.00  0.00     0.022 A 
ATOM      7  C   UNL     1     142.869 138.959  93.791  1.00  0.00     0.002 A 
ATOM      8  C   UNL     1     143.985 139.733  93.475  1.00  0.00     0.010 A 
ATOM      9  S   UNL     1     143.942 142.990  95.633  1.00  0.00    -0.128 S 
ATOM     10  Cl  UNL     1     140.992 141.194  96.634  1.00  0.00    -0.083 Cl
ENDROOT
BRANCH   1  11
ATOM     11  C   UNL     1     146.439 144.053  94.489  1.00  0.00     0.261 C 
ATOM     12  N   UNL     1     147.043 144.617  95.681  1.00  0.00    -0.347 N 
ATOM     13  O   UNL     1     146.793 144.420  93.420  1.00  0.00    -0.268 OA
ATOM     14  H   UNL     1     146.752 144.319  96.572  1.00  0.00     0.164 HD
BRANCH  12  15
ATOM     15  C   UNL     1     148.100 145.644  95.545  1.00  0.00     0.099 C 
ATOM     16  C   UNL     1     149.103 145.471  96.591  1.00  0.00     0.015 C 
ATOM     17  C   UNL     1     147.488 147.051  95.694  1.00  0.00     0.109 C 
ATOM     18  C   UNL     1     150.087 146.509  96.459  1.00  0.00     0.021 C 
ATOM     19  C   UNL     1     148.446 145.621  97.887  1.00  0.00     0.021 C 
ATOM     20  N   UNL     1     148.079 147.752  96.748  1.00  0.00    -0.301 NA
ATOM     21  C   UNL     1     149.439 147.859  96.549  1.00  0.00     0.085 C 
ATOM     22  C   UNL     1     147.837 147.072  97.967  1.00  0.00     0.085 C 
ENDBRANCH  12  15
ENDBRANCH   1  11
TORSDOF 2
ENDMDL
MODEL 11
REMARK VINA RESULT:    -5.677      5.918      7.163
REMARK INTER + INTRA:          -6.385
REMARK INTER:                  -6.105
REMARK INTRA:                  -0.280
REMARK UNBOUND:                -0.044
REMARK SMILES O=C(N[C@H]1CN2CCC1CC2)c1cc2cccc(Cl)c2s1
REMARK SMILES IDX 12 1 13 2 14 3 20 4 18 5 17 6 16 7 15 8 21 9 19 10 2 11 3 12
REMARK SMILES IDX 1 13 4 15 9 16 5 17 8 18 10 19 6 20 7 21 11 22
REMARK H PARENT 3 14
ROOT
ATOM      1  C   UNL     1     145.248 143.234  94.806  1.00  0.00     0.093 A 
ATOM      2  C   UNL     1     144.067 143.076  95.446  1.00  0.00     0.034 A 
ATOM      3  C   UNL     1     143.324 141.861  95.265  1.00  0.00    -0.005 A 
ATOM      4  C   UNL     1     143.970 140.926  94.384  1.00  0.00     0.054 A 
ATOM      5  C   UNL     1     143.374 139.717  94.118  1.00  0.00     0.058 A 
ATOM      6  C   UNL     1     142.144 139.403  94.705  1.00  0.00     0.022 A 
ATOM      7  C   UNL     1     141.515 140.320  95.564  1.00  0.00     0.002 A 
ATOM      8  C   UNL     1     142.118 141.548  95.836  1.00  0.00     0.010 A 
ATOM      9  S   UNL     1     145.501 141.775  93.892  1.00  0.00    -0.128 S 
ATOM     10  Cl  UNL     1     144.166 138.551  93.026  1.00  0.00    -0.083 Cl
ENDROOT
BRANCH   1  11
ATOM     11  C   UNL     1     146.157 144.466  94.892  1.00  0.00     0.261 C 
ATOM     12  N   UNL     1     147.201 144.683  93.910  1.00  0.00    -0.347 N 
ATOM     13  O   UNL     1     146.004 145.245  95.771  1.00  0.00    -0.268 OA
ATOM     14  H   UNL     1     147.336 144.038  93.179  1.00  0.00     0.164 HD
BRANCH  12  15
ATOM     15  C   UNL     1     148.064 145.881  94.017  1.00  0.00     0.099 C 
ATOM     16  C   UNL     1     148.481 146.318  92.688  1.00  0.00     0.015 C 
ATOM     17  C   UNL     1     149.330 145.546  94.832  1.00  0.00     0.109 C 
ATOM     18  C   UNL     1     149.351 147.451  92.831  1.00  0.00     0.021 C 
ATOM     19  C   UNL     1     149.234 145.234  92.063  1.00  0.00     0.021 C 
ATOM     20  N   UNL     1     150.488 145.782  94.087  1.00  0.00    -0.301 NA
ATOM     21  C   UNL     1     150.537 147.097  93.679  1.00  0.00     0.085 C 
ATOM     22  C   UNL     1     150.503 144.938  92.949  1.00  0.00     0.085 C 
ENDBRANCH  12  15
ENDBRANCH   1  11
TORSDOF 2
ENDMDL
MODEL 12
REMARK VINA RESULT:    -5.546      5.013      7.421
REMARK INTER + INTRA:          -6.238
REMARK INTER:                  -5.917
REMARK INTRA:                  -0.321
REMARK UNBOUND:                -0.044
REMARK SMILES O=C(N[C@H]1CN2CCC1CC2)c1cc2cccc(Cl)c2s1
REMARK SMILES IDX 12 1 13 2 14 3 20 4 18 5 17 6 16 7 15 8 21 9 19 10 2 11 3 12
REMARK SMILES IDX 1 13 4 15 9 16 5 17 8 18 10 19 6 20 7 21 11 22
REMARK H PARENT 3 14
ROOT
ATOM      1  C   UNL     1     146.512 138.613  91.480  1.00  0.00     0.093 A 
ATOM      2  C   UNL     1     145.708 138.988  90.459  1.00  0.00     0.034 A 
ATOM      3  C   UNL     1     144.370 139.425  90.737  1.00  0.00    -0.005 A 
ATOM      4  C   UNL     1     144.047 139.407  92.139  1.00  0.00     0.054 A 
ATOM      5  C   UNL     1     142.798 139.802  92.555  1.00  0.00     0.058 A 
ATOM      6  C   UNL     1     141.850 140.219  91.616  1.00  0.00     0.022 A 
ATOM      7  C   UNL     1     142.169 140.234  90.247  1.00  0.00     0.002 A 
ATOM      8  C   UNL     1     143.436 139.834  89.822  1.00  0.00     0.010 A 
ATOM      9  S   UNL     1     145.569 138.805  92.931  1.00  0.00    -0.128 S 
ATOM     10  Cl  UNL     1     142.387 139.783  94.290  1.00  0.00    -0.083 Cl
ENDROOT
BRANCH   1  11
ATOM     11  C   UNL     1     147.958 138.122  91.349  1.00  0.00     0.261 C 
ATOM     12  N   UNL     1     148.665 138.239  90.089  1.00  0.00    -0.347 N 
ATOM     13  O   UNL     1     148.500 137.641  92.286  1.00  0.00    -0.268 OA
ATOM     14  H   UNL     1     148.221 138.635  89.305  1.00  0.00     0.164 HD
BRANCH  12  15
ATOM     15  C   UNL     1     150.062 137.756  89.990  1.00  0.00     0.099 C 
ATOM     16  C   UNL     1     150.844 138.659  89.151  1.00  0.00     0.015 C 
ATOM     17  C   UNL     1     150.089 136.356  89.347  1.00  0.00     0.109 C 
ATOM     18  C   UNL     1     152.178 138.138  89.039  1.00  0.00     0.021 C 
ATOM     19  C   UNL     1     150.245 138.683  87.819  1.00  0.00     0.021 C 
ATOM     20  N   UNL     1     150.866 136.347  88.185  1.00  0.00    -0.301 NA
ATOM     21  C   UNL     1     152.152 136.752  88.465  1.00  0.00     0.085 C 
ATOM     22  C   UNL     1     150.298 137.223  87.227  1.00  0.00     0.085 C 
ENDBRANCH  12  15
ENDBRANCH   1  11
TORSDOF 2
ENDMDL
MODEL 13
REMARK VINA RESULT:    -5.512     10.778     11.807
REMARK INTER + INTRA:          -6.201
REMARK INTER:                  -5.964
REMARK INTRA:                  -0.236
REMARK UNBOUND:                -0.044
REMARK SMILES O=C(N[C@H]1CN2CCC1CC2)c1cc2cccc(Cl)c2s1
REMARK SMILES IDX 12 1 13 2 14 3 20 4 18 5 17 6 16 7 15 8 21 9 19 10 2 11 3 12
REMARK SMILES IDX 1 13 4 15 9 16 5 17 8 18 10 19 6 20 7 21 11 22
REMARK H PARENT 3 14
ROOT
ATOM      1  C   UNL     1     151.213 136.712  89.681  1.00  0.00     0.093 A 
ATOM      2  C   UNL     1     152.212 136.195  90.433  1.00  0.00     0.034 A 
ATOM      3  C   UNL     1     152.482 136.753  91.728  1.00  0.00    -0.005 A 
ATOM      4  C   UNL     1     151.607 137.843  92.069  1.00  0.00     0.054 A 
ATOM      5  C   UNL     1     151.748 138.475  93.281  1.00  0.00     0.058 A 
ATOM      6  C   UNL     1     152.739 138.056  94.174  1.00  0.00     0.022 A 
ATOM      7  C   UNL     1     153.592 136.991  93.836  1.00  0.00     0.002 A 
ATOM      8  C   UNL     1     153.451 136.348  92.606  1.00  0.00     0.010 A 
ATOM      9  S   UNL     1     150.520 138.003  90.621  1.00  0.00    -0.128 S 
ATOM     10  Cl  UNL     1     150.670 139.827  93.715  1.00  0.00    -0.083 Cl
ENDROOT
BRANCH   1  11
ATOM     11  C   UNL     1     150.803 136.232  88.284  1.00  0.00     0.261 C 
ATOM     12  N   UNL     1     149.498 135.641  88.062  1.00  0.00    -0.347 N 
ATOM     13  O   UNL     1     151.560 136.343  87.380  1.00  0.00    -0.268 OA
ATOM     14  H   UNL     1     148.864 135.543  88.808  1.00  0.00     0.164 HD
BRANCH  12  15
ATOM     15  C   UNL     1     149.127 135.185  86.702  1.00  0.00     0.099 C 
ATOM     16  C   UNL     1     148.600 136.304  85.926  1.00  0.00     0.015 C 
ATOM     17  C   UNL     1     148.032 134.104  86.791  1.00  0.00     0.109 C 
ATOM     18  C   UNL     1     148.208 135.819  84.632  1.00  0.00     0.021 C 
ATOM     19  C   UNL     1     147.413 136.816  86.606  1.00  0.00     0.021 C 
ATOM     20  N   UNL     1     146.885 134.486  86.091  1.00  0.00    -0.301 NA
ATOM     21  C   UNL     1     147.188 134.728  84.769  1.00  0.00     0.085 C 
ATOM     22  C   UNL     1     146.343 135.660  86.670  1.00  0.00     0.085 C 
ENDBRANCH  12  15
ENDBRANCH   1  11
TORSDOF 2
ENDMDL
MODEL 14
REMARK VINA RESULT:    -5.382      5.849      8.232
REMARK INTER + INTRA:          -6.055
REMARK INTER:                  -5.726
REMARK INTRA:                  -0.329
REMARK UNBOUND:                -0.044
REMARK SMILES O=C(N[C@H]1CN2CCC1CC2)c1cc2cccc(Cl)c2s1
REMARK SMILES IDX 12 1 13 2 14 3 20 4 18 5 17 6 16 7 15 8 21 9 19 10 2 11 3 12
REMARK SMILES IDX 1 13 4 15 9 16 5 17 8 18 10 19 6 20 7 21 11 22
REMARK H PARENT 3 14
ROOT
ATOM      1  C   UNL     1     141.549 140.091  89.100  1.00  0.00     0.093 A 
ATOM      2  C   UNL     1     142.859 139.764  89.190  1.00  0.00     0.034 A 
ATOM      3  C   UNL     1     143.485 139.711  90.480  1.00  0.00    -0.005 A 
ATOM      4  C   UNL     1     142.589 140.026  91.560  1.00  0.00     0.054 A 
ATOM      5  C   UNL     1     143.051 140.015  92.854  1.00  0.00     0.058 A 
ATOM      6  C   UNL     1     144.388 139.696  93.114  1.00  0.00     0.022 A 
ATOM      7  C   UNL     1     145.261 139.390  92.056  1.00  0.00     0.002 A 
ATOM      8  C   UNL     1     144.794 139.401  90.741  1.00  0.00     0.010 A 
ATOM      9  S   UNL     1     141.006 140.361  90.731  1.00  0.00    -0.128 S 
ATOM     10  Cl  UNL     1     141.949 140.405  94.200  1.00  0.00    -0.083 Cl
ENDROOT
BRANCH   1  11
ATOM     11  C   UNL     1     140.738 140.192  87.803  1.00  0.00     0.261 C 
ATOM     12  N   UNL     1     141.075 139.371  86.656  1.00  0.00    -0.347 N 
ATOM     13  O   UNL     1     139.830 140.950  87.737  1.00  0.00    -0.268 OA
ATOM     14  H   UNL     1     141.829 138.740  86.702  1.00  0.00     0.164 HD
BRANCH  12  15
ATOM     15  C   UNL     1     140.275 139.489  85.416  1.00  0.00     0.099 C 
ATOM     16  C   UNL     1     139.532 138.254  85.180  1.00  0.00     0.015 C 
ATOM     17  C   UNL     1     141.206 139.728  84.211  1.00  0.00     0.109 C 
ATOM     18  C   UNL     1     138.805 138.385  83.948  1.00  0.00     0.021 C 
ATOM     19  C   UNL     1     140.491 137.162  85.035  1.00  0.00     0.021 C 
ATOM     20  N   UNL     1     141.052 138.729  83.246  1.00  0.00    -0.301 NA
ATOM     21  C   UNL     1     139.744 138.677  82.815  1.00  0.00     0.085 C 
ATOM     22  C   UNL     1     141.413 137.475  83.796  1.00  0.00     0.085 C 
ENDBRANCH  12  15
ENDBRANCH   1  11
TORSDOF 2
ENDMDL
MODEL 15
REMARK VINA RESULT:    -5.254      5.157      7.401
REMARK INTER + INTRA:          -5.913
REMARK INTER:                  -5.602
REMARK INTRA:                  -0.311
REMARK UNBOUND:                -0.044
REMARK SMILES O=C(N[C@H]1CN2CCC1CC2)c1cc2cccc(Cl)c2s1
REMARK SMILES IDX 12 1 13 2 14 3 20 4 18 5 17 6 16 7 15 8 21 9 19 10 2 11 3 12
REMARK SMILES IDX 1 13 4 15 9 16 5 17 8 18 10 19 6 20 7 21 11 22
REMARK H PARENT 3 14
ROOT
ATOM      1  C   UNL     1     146.396 138.714  91.205  1.00  0.00     0.093 A 
ATOM      2  C   UNL     1     146.111 138.890  92.516  1.00  0.00     0.034 A 
ATOM      3  C   UNL     1     144.797 139.318  92.902  1.00  0.00    -0.005 A 
ATOM      4  C   UNL     1     143.912 139.510  91.785  1.00  0.00     0.054 A 
ATOM      5  C   UNL     1     142.618 139.919  92.003  1.00  0.00     0.058 A 
ATOM      6  C   UNL     1     142.170 140.145  93.308  1.00  0.00     0.022 A 
ATOM      7  C   UNL     1     143.038 139.957  94.397  1.00  0.00     0.002 A 
ATOM      8  C   UNL     1     144.352 139.542  94.178  1.00  0.00     0.010 A 
ATOM      9  S   UNL     1     144.935 139.098  90.340  1.00  0.00    -0.128 S 
ATOM     10  Cl  UNL     1     141.512 140.161  90.625  1.00  0.00    -0.083 Cl
ENDROOT
BRANCH   1  11
ATOM     11  C   UNL     1     147.745 138.265  90.633  1.00  0.00     0.261 C 
ATOM     12  N   UNL     1     148.736 137.638  91.487  1.00  0.00    -0.347 N 
ATOM     13  O   UNL     1     147.980 138.434  89.485  1.00  0.00    -0.268 OA
ATOM     14  H   UNL     1     148.549 137.496  92.442  1.00  0.00     0.164 HD
BRANCH  12  15
ATOM     15  C   UNL     1     150.031 137.214  90.908  1.00  0.00     0.099 C 
ATOM     16  C   UNL     1     150.503 136.003  91.573  1.00  0.00     0.015 C 
ATOM     17  C   UNL     1     151.086 138.319  91.115  1.00  0.00     0.109 C 
ATOM     18  C   UNL     1     151.780 135.646  91.021  1.00  0.00     0.021 C 
ATOM     19  C   UNL     1     150.680 136.297  92.993  1.00  0.00     0.021 C 
ATOM     20  N   UNL     1     152.182 137.843  91.840  1.00  0.00    -0.301 NA
ATOM     21  C   UNL     1     152.757 136.772  91.191  1.00  0.00     0.085 C 
ATOM     22  C   UNL     1     151.761 137.437  93.130  1.00  0.00     0.085 C 
ENDBRANCH  12  15
ENDBRANCH   1  11
TORSDOF 2
ENDMDL
MODEL 16
REMARK VINA RESULT:    -5.252      5.947      6.851
REMARK INTER + INTRA:          -5.910
REMARK INTER:                  -5.631
REMARK INTRA:                  -0.279
REMARK UNBOUND:                -0.044
REMARK SMILES O=C(N[C@H]1CN2CCC1CC2)c1cc2cccc(Cl)c2s1
REMARK SMILES IDX 12 1 13 2 14 3 20 4 18 5 17 6 16 7 15 8 21 9 19 10 2 11 3 12
REMARK SMILES IDX 1 13 4 15 9 16 5 17 8 18 10 19 6 20 7 21 11 22
REMARK H PARENT 3 14
ROOT
ATOM      1  C   UNL     1     143.746 143.480  97.041  1.00  0.00     0.093 A 
ATOM      2  C   UNL     1     142.450 143.470  97.427  1.00  0.00     0.034 A 
ATOM      3  C   UNL     1     141.564 142.470  96.902  1.00  0.00    -0.005 A 
ATOM      4  C   UNL     1     142.209 141.565  95.989  1.00  0.00     0.054 A 
ATOM      5  C   UNL     1     141.483 140.553  95.407  1.00  0.00     0.058 A 
ATOM      6  C   UNL     1     140.124 140.410  95.706  1.00  0.00     0.022 A 
ATOM      7  C   UNL     1     139.498 141.298  96.597  1.00  0.00     0.002 A 
ATOM      8  C   UNL     1     140.233 142.326  97.189  1.00  0.00     0.010 A 
ATOM      9  S   UNL     1     143.929 142.151  95.932  1.00  0.00    -0.128 S 
ATOM     10  Cl  UNL     1     142.272 139.425  94.273  1.00  0.00    -0.083 Cl
ENDROOT
BRANCH   1  11
ATOM     11  C   UNL     1     144.813 144.477  97.507  1.00  0.00     0.261 C 
ATOM     12  N   UNL     1     146.000 144.715  96.708  1.00  0.00    -0.347 N 
ATOM     13  O   UNL     1     144.667 145.056  98.529  1.00  0.00    -0.268 OA
ATOM     14  H   UNL     1     146.130 144.236  95.858  1.00  0.00     0.164 HD
BRANCH  12  15
ATOM     15  C   UNL     1     147.015 145.683  97.181  1.00  0.00     0.099 C 
ATOM     16  C   UNL     1     146.721 147.013  96.656  1.00  0.00     0.015 C 
ATOM     17  C   UNL     1     148.412 145.266  96.682  1.00  0.00     0.109 C 
ATOM     18  C   UNL     1     147.747 147.916  97.095  1.00  0.00     0.021 C 
ATOM     19  C   UNL     1     146.757 146.949  95.197  1.00  0.00     0.021 C 
ATOM     20  N   UNL     1     148.995 146.275  95.910  1.00  0.00    -0.301 NA
ATOM     21  C   UNL     1     149.094 147.440  96.639  1.00  0.00     0.085 C 
ATOM     22  C   UNL     1     148.205 146.509  94.758  1.00  0.00     0.085 C 
ENDBRANCH  12  15
ENDBRANCH   1  11
TORSDOF 2
ENDMDL
MODEL 17
REMARK VINA RESULT:    -5.165     10.871     11.519
REMARK INTER + INTRA:          -5.814
REMARK INTER:                  -5.491
REMARK INTRA:                  -0.323
REMARK UNBOUND:                -0.044
REMARK SMILES O=C(N[C@H]1CN2CCC1CC2)c1cc2cccc(Cl)c2s1
REMARK SMILES IDX 12 1 13 2 14 3 20 4 18 5 17 6 16 7 15 8 21 9 19 10 2 11 3 12
REMARK SMILES IDX 1 13 4 15 9 16 5 17 8 18 10 19 6 20 7 21 11 22
REMARK H PARENT 3 14
ROOT
ATOM      1  C   UNL     1     151.293 137.142  89.985  1.00  0.00     0.093 A 
ATOM      2  C   UNL     1     151.220 138.455  90.305  1.00  0.00     0.034 A 
ATOM      3  C   UNL     1     151.537 138.875  91.640  1.00  0.00    -0.005 A 
ATOM      4  C   UNL     1     151.911 137.787  92.503  1.00  0.00     0.054 A 
ATOM      5  C   UNL     1     152.242 138.040  93.813  1.00  0.00     0.058 A 
ATOM      6  C   UNL     1     152.214 139.351  94.298  1.00  0.00     0.022 A 
ATOM      7  C   UNL     1     151.847 140.411  93.451  1.00  0.00     0.002 A 
ATOM      8  C   UNL     1     151.510 140.157  92.121  1.00  0.00     0.010 A 
ATOM      9  S   UNL     1     151.796 136.321  91.435  1.00  0.00    -0.128 S 
ATOM     10  Cl  UNL     1     152.707 136.699  94.892  1.00  0.00    -0.083 Cl
ENDROOT
BRANCH   1  11
ATOM     11  C   UNL     1     150.986 136.536  88.611  1.00  0.00     0.261 C 
ATOM     12  N   UNL     1     149.631 136.163  88.255  1.00  0.00    -0.347 N 
ATOM     13  O   UNL     1     151.865 136.368  87.836  1.00  0.00    -0.268 OA
ATOM     14  H   UNL     1     148.895 136.297  88.895  1.00  0.00     0.164 HD
BRANCH  12  15
ATOM     15  C   UNL     1     149.363 135.579  86.921  1.00  0.00     0.099 C 
ATOM     16  C   UNL     1     148.803 136.594  86.034  1.00  0.00     0.015 C 
ATOM     17  C   UNL     1     148.340 134.432  87.046  1.00  0.00     0.109 C 
ATOM     18  C   UNL     1     148.513 135.985  84.767  1.00  0.00     0.021 C 
ATOM     19  C   UNL     1     147.550 137.072  86.614  1.00  0.00     0.021 C 
ATOM     20  N   UNL     1     147.207 134.677  86.265  1.00  0.00    -0.301 NA
ATOM     21  C   UNL     1     147.562 134.838  84.943  1.00  0.00     0.085 C 
ATOM     22  C   UNL     1     146.559 135.851  86.721  1.00  0.00     0.085 C 
ENDBRANCH  12  15
ENDBRANCH   1  11
TORSDOF 2
ENDMDL
MODEL 18
REMARK VINA RESULT:    -5.105      5.048      7.260
REMARK INTER + INTRA:          -5.746
REMARK INTER:                  -5.450
REMARK INTRA:                  -0.296
REMARK UNBOUND:                -0.044
REMARK SMILES O=C(N[C@H]1CN2CCC1CC2)c1cc2cccc(Cl)c2s1
REMARK SMILES IDX 12 1 13 2 14 3 20 4 18 5 17 6 16 7 15 8 21 9 19 10 2 11 3 12
REMARK SMILES IDX 1 13 4 15 9 16 5 17 8 18 10 19 6 20 7 21 11 22
REMARK H PARENT 3 14
ROOT
ATOM      1  C   UNL     1     146.540 138.600  91.638  1.00  0.00     0.093 A 
ATOM      2  C   UNL     1     146.015 138.831  92.864  1.00  0.00     0.034 A 
ATOM      3  C   UNL     1     144.662 139.297  92.976  1.00  0.00    -0.005 A 
ATOM      4  C   UNL     1     144.011 139.461  91.704  1.00  0.00     0.054 A 
ATOM      5  C   UNL     1     142.710 139.901  91.656  1.00  0.00     0.058 A 
ATOM      6  C   UNL     1     142.027 140.185  92.843  1.00  0.00     0.022 A 
ATOM      7  C   UNL     1     142.667 140.025  94.084  1.00  0.00     0.002 A 
ATOM      8  C   UNL     1     143.988 139.579  94.135  1.00  0.00     0.010 A 
ATOM      9  S   UNL     1     145.281 138.976  90.497  1.00  0.00    -0.128 S 
ATOM     10  Cl  UNL     1     141.894 140.108  90.085  1.00  0.00    -0.083 Cl
ENDROOT
BRANCH   1  11
ATOM     11  C   UNL     1     147.962 138.105  91.351  1.00  0.00     0.261 C 
ATOM     12  N   UNL     1     148.524 138.211  90.019  1.00  0.00    -0.347 N 
ATOM     13  O   UNL     1     148.604 137.629  92.225  1.00  0.00    -0.268 OA
ATOM     14  H   UNL     1     147.996 138.603  89.287  1.00  0.00     0.164 HD
BRANCH  12  15
ATOM     15  C   UNL     1     149.901 137.725  89.769  1.00  0.00     0.099 C 
ATOM     16  C   UNL     1     150.567 138.587  88.797  1.00  0.00     0.015 C 
ATOM     17  C   UNL     1     149.856 136.296  89.193  1.00  0.00     0.109 C 
ATOM     18  C   UNL     1     151.879 138.062  88.543  1.00  0.00     0.021 C 
ATOM     19  C   UNL     1     149.806 138.549  87.551  1.00  0.00     0.021 C 
ATOM     20  N   UNL     1     150.481 136.233  87.945  1.00  0.00    -0.301 NA
ATOM     21  C   UNL     1     151.791 136.651  88.043  1.00  0.00     0.085 C 
ATOM     22  C   UNL     1     149.793 137.063  87.026  1.00  0.00     0.085 C 
ENDBRANCH  12  15
ENDBRANCH   1  11
TORSDOF 2
ENDMDL
MODEL 19
REMARK VINA RESULT:    -4.878     10.450     11.247
REMARK INTER + INTRA:          -5.492
REMARK INTER:                  -5.180
REMARK INTRA:                  -0.312
REMARK UNBOUND:                -0.044
REMARK SMILES O=C(N[C@H]1CN2CCC1CC2)c1cc2cccc(Cl)c2s1
REMARK SMILES IDX 12 1 13 2 14 3 20 4 18 5 17 6 16 7 15 8 21 9 19 10 2 11 3 12
REMARK SMILES IDX 1 13 4 15 9 16 5 17 8 18 10 19 6 20 7 21 11 22
REMARK H PARENT 3 14
ROOT
ATOM      1  C   UNL     1     150.756 136.940  91.164  1.00  0.00     0.093 A 
ATOM      2  C   UNL     1     151.621 136.490  92.102  1.00  0.00     0.034 A 
ATOM      3  C   UNL     1     152.056 137.376  93.144  1.00  0.00    -0.005 A 
ATOM      4  C   UNL     1     151.482 138.691  93.047  1.00  0.00     0.054 A 
ATOM      5  C   UNL     1     151.807 139.647  93.979  1.00  0.00     0.058 A 
ATOM      6  C   UNL     1     152.693 139.336  95.015  1.00  0.00     0.022 A 
ATOM      7  C   UNL     1     153.253 138.050  95.106  1.00  0.00     0.002 A 
ATOM      8  C   UNL     1     152.924 137.078  94.161  1.00  0.00     0.010 A 
ATOM      9  S   UNL     1     150.424 138.600  91.571  1.00  0.00    -0.128 S 
ATOM     10  Cl  UNL     1     151.102 141.281  93.868  1.00  0.00    -0.083 Cl
ENDROOT
BRANCH   1  11
ATOM     11  C   UNL     1     150.201 136.124  89.991  1.00  0.00     0.261 C 
ATOM     12  N   UNL     1     149.899 136.763  88.725  1.00  0.00    -0.347 N 
ATOM     13  O   UNL     1     150.014 134.962  90.123  1.00  0.00    -0.268 OA
ATOM     14  H   UNL     1     150.049 137.728  88.608  1.00  0.00     0.164 HD
BRANCH  12  15
ATOM     15  C   UNL     1     149.363 135.951  87.609  1.00  0.00     0.099 C 
ATOM     16  C   UNL     1     150.365 135.829  86.553  1.00  0.00     0.015 C 
ATOM     17  C   UNL     1     148.117 136.634  87.013  1.00  0.00     0.109 C 
ATOM     18  C   UNL     1     149.798 135.076  85.469  1.00  0.00     0.021 C 
ATOM     19  C   UNL     1     150.685 137.168  86.067  1.00  0.00     0.021 C 
ATOM     20  N   UNL     1     148.290 136.907  85.654  1.00  0.00    -0.301 NA
ATOM     21  C   UNL     1     148.555 135.745  84.962  1.00  0.00     0.085 C 
ATOM     22  C   UNL     1     149.368 137.809  85.483  1.00  0.00     0.085 C 
ENDBRANCH  12  15
ENDBRANCH   1  11
TORSDOF 2
ENDMDL
