MODEL 1
REMARK VINA RESULT:   -10.431      0.000      0.000
REMARK INTER + INTRA:         -18.845
REMARK INTER:                 -17.139
REMARK INTRA:                  -1.706
REMARK UNBOUND:                -1.706
REMARK SMILES CCOc1cc2ncc(C#N)c(Nc3ccc(OCc4ccccn4)c(Cl)c3)c2cc1NC(=O)/C=C/CN(C)C
REMARK SMILES IDX 7 1 11 2 29 3 12 4 6 5 30 6 31 7 4 8 5 9 9 10 8 11 10 12
REMARK SMILES IDX 13 13 14 15 26 16 28 17 17 18 16 19 15 20 27 21 18 22 19 23
REMARK SMILES IDX 20 24 25 25 21 26 24 27 22 28 23 29 32 30 33 31 34 32 35 34
REMARK SMILES IDX 36 35 37 36 38 37 39 38 40 39 3 40 2 41 1 42
REMARK H PARENT 13 14 32 33
ROOT
ATOM      1  N   UNL     1     -41.907  47.285  14.320  1.00  0.00    -0.255 NA
ATOM      2  N   UNL     1     -41.098  51.250  11.730  1.00  0.00    -0.192 NA
ATOM      3  C   UNL     1     -40.527  48.613  15.781  1.00  0.00     0.027 A 
ATOM      4  C   UNL     1     -40.472  49.618  14.807  1.00  0.00     0.068 A 
ATOM      5  C   UNL     1     -41.266  47.447  15.493  1.00  0.00     0.076 A 
ATOM      6  C   UNL     1     -39.869  48.749  17.016  1.00  0.00     0.042 A 
ATOM      7  C   UNL     1     -39.939  47.735  17.967  1.00  0.00     0.084 A 
ATOM      8  C   UNL     1     -40.665  46.583  17.689  1.00  0.00     0.144 A 
ATOM      9  C   UNL     1     -41.319  46.449  16.461  1.00  0.00     0.077 A 
ATOM     10  C   UNL     1     -41.133  49.454  13.597  1.00  0.00     0.094 A 
ATOM     11  C   UNL     1     -41.831  48.279  13.406  1.00  0.00     0.133 A 
ATOM     12  C   UNL     1     -41.114  50.445  12.567  1.00  0.00     0.103 C 
ENDROOT
BRANCH   4  13
ATOM     13  N   UNL     1     -39.744  50.814  15.039  1.00  0.00    -0.354 N 
ATOM     14  H   UNL     1     -40.338  51.583  15.337  1.00  0.00     0.167 HD
BRANCH  13  15
ATOM     15  C   UNL     1     -38.380  51.124  14.943  1.00  0.00     0.040 A 
ATOM     16  C   UNL     1     -36.577  52.736  15.079  1.00  0.00     0.085 A 
ATOM     17  C   UNL     1     -37.934  52.429  15.175  1.00  0.00     0.050 A 
ATOM     18  C   UNL     1     -35.658  51.739  14.749  1.00  0.00     0.138 A 
ATOM     19  C   UNL     1     -36.096  50.436  14.515  1.00  0.00     0.050 A 
ATOM     20  C   UNL     1     -37.454  50.130  14.611  1.00  0.00     0.030 A 
ATOM     21  Cl  UNL     1     -36.062  54.356  15.374  1.00  0.00    -0.080 Cl
BRANCH  18  22
ATOM     22  O   UNL     1     -34.325  52.011  14.648  1.00  0.00    -0.486 OA
BRANCH  22  23
ATOM     23  C   UNL     1     -33.568  51.984  15.856  1.00  0.00     0.285 C 
BRANCH  23  24
ATOM     24  C   UNL     1     -32.197  51.450  15.561  1.00  0.00     0.078 A 
ATOM     25  N   UNL     1     -31.946  51.122  14.277  1.00  0.00    -0.258 NA
ATOM     26  C   UNL     1     -31.287  51.328  16.594  1.00  0.00     0.027 A 
ATOM     27  C   UNL     1     -30.710  50.642  14.017  1.00  0.00     0.111 A 
ATOM     28  C   UNL     1     -30.025  50.832  16.287  1.00  0.00     0.004 A 
ATOM     29  C   UNL     1     -29.724  50.480  14.976  1.00  0.00     0.020 A 
ENDBRANCH  23  24
ENDBRANCH  22  23
ENDBRANCH  18  22
ENDBRANCH  13  15
ENDBRANCH   4  13
BRANCH   7  30
ATOM     30  N   UNL     1     -39.278  47.887  19.188  1.00  0.00    -0.319 N 
ATOM     31  C   UNL     1     -39.829  48.233  20.429  1.00  0.00     0.248 C 
ATOM     32  O   UNL     1     -41.005  48.471  20.675  1.00  0.00    -0.270 OA
ATOM     33  H   UNL     1     -38.274  47.722  19.150  1.00  0.00     0.170 HD
BRANCH  31  34
ATOM     34  C   UNL     1     -38.785  48.294  21.496  1.00  0.00     0.068 C 
ATOM     35  C   UNL     1     -37.842  47.345  21.581  1.00  0.00    -0.006 C 
BRANCH  35  36
ATOM     36  C   UNL     1     -36.762  47.351  22.620  1.00  0.00     0.111 C 
BRANCH  36  37
ATOM     37  N   UNL     1     -35.918  46.166  22.522  1.00  0.00    -0.306 NA
ATOM     38  C   UNL     1     -34.700  46.464  21.768  1.00  0.00     0.105 C 
ATOM     39  C   UNL     1     -36.648  45.064  21.895  1.00  0.00     0.105 C 
ENDBRANCH  36  37
ENDBRANCH  35  36
ENDBRANCH  31  34
ENDBRANCH   7  30
BRANCH   8  40
ATOM     40  O   UNL     1     -40.752  45.572  18.599  1.00  0.00    -0.492 OA
BRANCH  40  41
ATOM     41  C   UNL     1     -42.006  45.396  19.253  1.00  0.00     0.226 C 
ATOM     42  C   UNL     1     -42.380  43.930  19.218  1.00  0.00     0.049 C 
ENDBRANCH  40  41
ENDBRANCH   8  40
TORSDOF 11
ENDMDL
MODEL 2
REMARK VINA RESULT:    -9.683      1.750      2.191
REMARK INTER + INTRA:         -17.615
REMARK INTER:                 -15.829
REMARK INTRA:                  -1.787
REMARK UNBOUND:                -1.706
REMARK SMILES CCOc1cc2ncc(C#N)c(Nc3ccc(OCc4ccccn4)c(Cl)c3)c2cc1NC(=O)/C=C/CN(C)C
REMARK SMILES IDX 7 1 11 2 29 3 12 4 6 5 30 6 31 7 4 8 5 9 9 10 8 11 10 12
REMARK SMILES IDX 13 13 14 15 26 16 28 17 17 18 16 19 15 20 27 21 18 22 19 23
REMARK SMILES IDX 20 24 25 25 21 26 24 27 22 28 23 29 32 30 33 31 34 32 35 34
REMARK SMILES IDX 36 35 37 36 38 37 39 38 40 39 3 40 2 41 1 42
REMARK H PARENT 13 14 32 33
ROOT
ATOM      1  N   UNL     1     -43.685  49.527  14.641  1.00  0.00    -0.255 NA
ATOM      2  N   UNL     1     -40.371  50.962  11.471  1.00  0.00    -0.192 NA
ATOM      3  C   UNL     1     -41.626  48.753  15.623  1.00  0.00     0.027 A 
ATOM      4  C   UNL     1     -40.915  49.287  14.540  1.00  0.00     0.068 A 
ATOM      5  C   UNL     1     -43.029  48.898  15.633  1.00  0.00     0.076 A 
ATOM      6  C   UNL     1     -40.973  48.090  16.676  1.00  0.00     0.042 A 
ATOM      7  C   UNL     1     -41.704  47.568  17.740  1.00  0.00     0.084 A 
ATOM      8  C   UNL     1     -43.086  47.707  17.756  1.00  0.00     0.144 A 
ATOM      9  C   UNL     1     -43.734  48.367  16.709  1.00  0.00     0.077 A 
ATOM     10  C   UNL     1     -41.589  49.938  13.516  1.00  0.00     0.094 A 
ATOM     11  C   UNL     1     -42.962  50.030  13.614  1.00  0.00     0.133 A 
ATOM     12  C   UNL     1     -40.917  50.503  12.387  1.00  0.00     0.103 C 
ENDROOT
BRANCH   4  13
ATOM     13  N   UNL     1     -39.502  49.173  14.474  1.00  0.00    -0.354 N 
ATOM     14  H   UNL     1     -39.197  48.373  13.927  1.00  0.00     0.167 HD
BRANCH  13  15
ATOM     15  C   UNL     1     -38.466  49.953  15.009  1.00  0.00     0.040 A 
ATOM     16  C   UNL     1     -37.602  52.106  15.706  1.00  0.00     0.085 A 
ATOM     17  C   UNL     1     -38.633  51.332  15.174  1.00  0.00     0.050 A 
ATOM     18  C   UNL     1     -36.397  51.506  16.075  1.00  0.00     0.138 A 
ATOM     19  C   UNL     1     -36.225  50.131  15.912  1.00  0.00     0.050 A 
ATOM     20  C   UNL     1     -37.256  49.357  15.380  1.00  0.00     0.030 A 
ATOM     21  Cl  UNL     1     -37.842  53.803  15.897  1.00  0.00    -0.080 Cl
BRANCH  18  22
ATOM     22  O   UNL     1     -35.373  52.238  16.598  1.00  0.00    -0.486 OA
BRANCH  22  23
ATOM     23  C   UNL     1     -34.603  53.016  15.684  1.00  0.00     0.285 C 
BRANCH  23  24
ATOM     24  C   UNL     1     -33.275  52.350  15.476  1.00  0.00     0.078 A 
ATOM     25  N   UNL     1     -32.978  51.989  14.211  1.00  0.00    -0.258 NA
ATOM     26  C   UNL     1     -32.446  52.149  16.563  1.00  0.00     0.027 A 
ATOM     27  C   UNL     1     -31.780  51.391  14.029  1.00  0.00     0.111 A 
ATOM     28  C   UNL     1     -31.222  51.531  16.337  1.00  0.00     0.004 A 
ATOM     29  C   UNL     1     -30.875  51.142  15.048  1.00  0.00     0.020 A 
ENDBRANCH  23  24
ENDBRANCH  22  23
ENDBRANCH  18  22
ENDBRANCH  13  15
ENDBRANCH   4  13
BRANCH   7  30
ATOM     30  N   UNL     1     -41.038  46.911  18.777  1.00  0.00    -0.319 N 
ATOM     31  C   UNL     1     -40.814  45.536  18.924  1.00  0.00     0.248 C 
ATOM     32  O   UNL     1     -41.166  44.644  18.161  1.00  0.00    -0.270 OA
ATOM     33  H   UNL     1     -40.679  47.525  19.506  1.00  0.00     0.170 HD
BRANCH  31  34
ATOM     34  C   UNL     1     -40.060  45.232  20.177  1.00  0.00     0.068 C 
ATOM     35  C   UNL     1     -38.805  45.674  20.341  1.00  0.00    -0.006 C 
BRANCH  35  36
ATOM     36  C   UNL     1     -37.997  45.413  21.575  1.00  0.00     0.111 C 
BRANCH  36  37
ATOM     37  N   UNL     1     -37.510  46.653  22.170  1.00  0.00    -0.306 NA
ATOM     38  C   UNL     1     -38.231  47.803  21.622  1.00  0.00     0.105 C 
ATOM     39  C   UNL     1     -36.071  46.802  21.946  1.00  0.00     0.105 C 
ENDBRANCH  36  37
ENDBRANCH  35  36
ENDBRANCH  31  34
ENDBRANCH   7  30
BRANCH   8  40
ATOM     40  O   UNL     1     -43.829  47.206  18.783  1.00  0.00    -0.492 OA
BRANCH  40  41
ATOM     41  C   UNL     1     -44.654  46.079  18.496  1.00  0.00     0.226 C 
ATOM     42  C   UNL     1     -45.471  45.740  19.724  1.00  0.00     0.049 C 
ENDBRANCH  40  41
ENDBRANCH   8  40
TORSDOF 11
ENDMDL
MODEL 3
REMARK VINA RESULT:    -8.872      2.004      2.280
REMARK INTER + INTRA:         -16.283
REMARK INTER:                 -15.020
REMARK INTRA:                  -1.263
REMARK UNBOUND:                -1.706
REMARK SMILES CCOc1cc2ncc(C#N)c(Nc3ccc(OCc4ccccn4)c(Cl)c3)c2cc1NC(=O)/C=C/CN(C)C
REMARK SMILES IDX 7 1 11 2 29 3 12 4 6 5 30 6 31 7 4 8 5 9 9 10 8 11 10 12
REMARK SMILES IDX 13 13 14 15 26 16 28 17 17 18 16 19 15 20 27 21 18 22 19 23
REMARK SMILES IDX 20 24 25 25 21 26 24 27 22 28 23 29 32 30 33 31 34 32 35 34
REMARK SMILES IDX 36 35 37 36 38 37 39 38 40 39 3 40 2 41 1 42
REMARK H PARENT 13 14 32 33
ROOT
ATOM      1  N   UNL     1     -42.423  47.997  13.285  1.00  0.00    -0.255 NA
ATOM      2  N   UNL     1     -40.155  51.858  11.542  1.00  0.00    -0.192 NA
ATOM      3  C   UNL     1     -41.262  48.860  15.213  1.00  0.00     0.027 A 
ATOM      4  C   UNL     1     -40.741  49.897  14.428  1.00  0.00     0.068 A 
ATOM      5  C   UNL     1     -42.111  47.919  14.592  1.00  0.00     0.076 A 
ATOM      6  C   UNL     1     -40.958  48.747  16.580  1.00  0.00     0.042 A 
ATOM      7  C   UNL     1     -41.489  47.706  17.337  1.00  0.00     0.084 A 
ATOM      8  C   UNL     1     -42.325  46.777  16.732  1.00  0.00     0.144 A 
ATOM      9  C   UNL     1     -42.628  46.889  15.373  1.00  0.00     0.077 A 
ATOM     10  C   UNL     1     -41.062  49.981  13.080  1.00  0.00     0.094 A 
ATOM     11  C   UNL     1     -41.900  49.014  12.563  1.00  0.00     0.133 A 
ATOM     12  C   UNL     1     -40.561  51.016  12.231  1.00  0.00     0.103 C 
ENDROOT
BRANCH   4  13
ATOM     13  N   UNL     1     -39.882  50.874  14.996  1.00  0.00    -0.354 N 
ATOM     14  H   UNL     1     -40.368  51.504  15.627  1.00  0.00     0.167 HD
BRANCH  13  15
ATOM     15  C   UNL     1     -38.509  51.121  14.854  1.00  0.00     0.040 A 
ATOM     16  C   UNL     1     -36.620  52.630  15.003  1.00  0.00     0.085 A 
ATOM     17  C   UNL     1     -37.986  52.385  15.144  1.00  0.00     0.050 A 
ATOM     18  C   UNL     1     -35.770  51.612  14.569  1.00  0.00     0.138 A 
ATOM     19  C   UNL     1     -36.286  50.350  14.277  1.00  0.00     0.050 A 
ATOM     20  C   UNL     1     -37.652  50.105  14.418  1.00  0.00     0.030 A 
ATOM     21  Cl  UNL     1     -36.009  54.201  15.371  1.00  0.00    -0.080 Cl
BRANCH  18  22
ATOM     22  O   UNL     1     -34.431  51.824  14.422  1.00  0.00    -0.486 OA
BRANCH  22  23
ATOM     23  C   UNL     1     -33.632  51.753  15.602  1.00  0.00     0.285 C 
BRANCH  23  24
ATOM     24  C   UNL     1     -32.185  51.726  15.211  1.00  0.00     0.078 A 
ATOM     25  N   UNL     1     -31.704  50.544  14.776  1.00  0.00    -0.258 NA
ATOM     26  C   UNL     1     -31.440  52.886  15.314  1.00  0.00     0.027 A 
ATOM     27  C   UNL     1     -30.399  50.526  14.424  1.00  0.00     0.111 A 
ATOM     28  C   UNL     1     -30.101  52.828  14.943  1.00  0.00     0.004 A 
ATOM     29  C   UNL     1     -29.564  51.629  14.488  1.00  0.00     0.020 A 
ENDBRANCH  23  24
ENDBRANCH  22  23
ENDBRANCH  18  22
ENDBRANCH  13  15
ENDBRANCH   4  13
BRANCH   7  30
ATOM     30  N   UNL     1     -41.174  47.611  18.695  1.00  0.00    -0.319 N 
ATOM     31  C   UNL     1     -39.976  47.965  19.329  1.00  0.00     0.248 C 
ATOM     32  O   UNL     1     -38.971  48.429  18.804  1.00  0.00    -0.270 OA
ATOM     33  H   UNL     1     -41.920  47.235  19.276  1.00  0.00     0.170 HD
BRANCH  31  34
ATOM     34  C   UNL     1     -40.036  47.709  20.799  1.00  0.00     0.068 C 
ATOM     35  C   UNL     1     -40.495  46.540  21.268  1.00  0.00    -0.006 C 
BRANCH  35  36
ATOM     36  C   UNL     1     -40.573  46.214  22.729  1.00  0.00     0.111 C 
BRANCH  36  37
ATOM     37  N   UNL     1     -41.476  45.097  22.982  1.00  0.00    -0.306 NA
ATOM     38  C   UNL     1     -40.737  43.834  23.002  1.00  0.00     0.105 C 
ATOM     39  C   UNL     1     -42.534  45.051  21.972  1.00  0.00     0.105 C 
ENDBRANCH  36  37
ENDBRANCH  35  36
ENDBRANCH  31  34
ENDBRANCH   7  30
BRANCH   8  40
ATOM     40  O   UNL     1     -42.860  45.746  17.446  1.00  0.00    -0.492 OA
BRANCH  40  41
ATOM     41  C   UNL     1     -44.257  45.806  17.721  1.00  0.00     0.226 C 
ATOM     42  C   UNL     1     -44.470  46.519  19.039  1.00  0.00     0.049 C 
ENDBRANCH  40  41
ENDBRANCH   8  40
TORSDOF 11
ENDMDL
MODEL 4
REMARK VINA RESULT:    -8.590      2.927      3.802
REMARK INTER + INTRA:         -15.821
REMARK INTER:                 -14.377
REMARK INTRA:                  -1.443
REMARK UNBOUND:                -1.706
REMARK SMILES CCOc1cc2ncc(C#N)c(Nc3ccc(OCc4ccccn4)c(Cl)c3)c2cc1NC(=O)/C=C/CN(C)C
REMARK SMILES IDX 7 1 11 2 29 3 12 4 6 5 30 6 31 7 4 8 5 9 9 10 8 11 10 12
REMARK SMILES IDX 13 13 14 15 26 16 28 17 17 18 16 19 15 20 27 21 18 22 19 23
REMARK SMILES IDX 20 24 25 25 21 26 24 27 22 28 23 29 32 30 33 31 34 32 35 34
REMARK SMILES IDX 36 35 37 36 38 37 39 38 40 39 3 40 2 41 1 42
REMARK H PARENT 13 14 32 33
ROOT
ATOM      1  N   UNL     1     -43.556  50.155  13.189  1.00  0.00    -0.255 NA
ATOM      2  N   UNL     1     -39.277  51.419  11.405  1.00  0.00    -0.192 NA
ATOM      3  C   UNL     1     -42.007  49.011  14.637  1.00  0.00     0.027 A 
ATOM      4  C   UNL     1     -40.938  49.544  13.906  1.00  0.00     0.068 A 
ATOM      5  C   UNL     1     -43.318  49.347  14.239  1.00  0.00     0.076 A 
ATOM      6  C   UNL     1     -41.795  48.165  15.739  1.00  0.00     0.042 A 
ATOM      7  C   UNL     1     -42.875  47.648  16.449  1.00  0.00     0.084 A 
ATOM      8  C   UNL     1     -44.169  47.975  16.062  1.00  0.00     0.144 A 
ATOM      9  C   UNL     1     -44.380  48.817  14.967  1.00  0.00     0.077 A 
ATOM     10  C   UNL     1     -41.180  50.379  12.823  1.00  0.00     0.094 A 
ATOM     11  C   UNL     1     -42.497  50.651  12.510  1.00  0.00     0.133 A 
ATOM     12  C   UNL     1     -40.130  50.952  12.040  1.00  0.00     0.103 C 
ENDROOT
BRANCH   4  13
ATOM     13  N   UNL     1     -39.596  49.243  14.258  1.00  0.00    -0.354 N 
ATOM     14  H   UNL     1     -39.341  48.283  14.046  1.00  0.00     0.167 HD
BRANCH  13  15
ATOM     15  C   UNL     1     -38.574  50.015  14.828  1.00  0.00     0.040 A 
ATOM     16  C   UNL     1     -37.764  52.137  15.669  1.00  0.00     0.085 A 
ATOM     17  C   UNL     1     -38.782  51.371  15.102  1.00  0.00     0.050 A 
ATOM     18  C   UNL     1     -36.532  51.553  15.965  1.00  0.00     0.138 A 
ATOM     19  C   UNL     1     -36.319  50.202  15.694  1.00  0.00     0.050 A 
ATOM     20  C   UNL     1     -37.336  49.435  15.127  1.00  0.00     0.030 A 
ATOM     21  Cl  UNL     1     -38.056  53.806  15.995  1.00  0.00    -0.080 Cl
BRANCH  18  22
ATOM     22  O   UNL     1     -35.520  52.279  16.520  1.00  0.00    -0.486 OA
BRANCH  22  23
ATOM     23  C   UNL     1     -34.701  53.032  15.629  1.00  0.00     0.285 C 
BRANCH  23  24
ATOM     24  C   UNL     1     -33.353  52.380  15.535  1.00  0.00     0.078 A 
ATOM     25  N   UNL     1     -32.940  52.034  14.299  1.00  0.00    -0.258 NA
ATOM     26  C   UNL     1     -32.625  52.175  16.691  1.00  0.00     0.027 A 
ATOM     27  C   UNL     1     -31.725  51.447  14.221  1.00  0.00     0.111 A 
ATOM     28  C   UNL     1     -31.379  51.570  16.571  1.00  0.00     0.004 A 
ATOM     29  C   UNL     1     -30.914  51.196  15.314  1.00  0.00     0.020 A 
ENDBRANCH  23  24
ENDBRANCH  22  23
ENDBRANCH  18  22
ENDBRANCH  13  15
ENDBRANCH   4  13
BRANCH   7  30
ATOM     30  N   UNL     1     -42.645  46.808  17.540  1.00  0.00    -0.319 N 
ATOM     31  C   UNL     1     -42.110  47.145  18.791  1.00  0.00     0.248 C 
ATOM     32  O   UNL     1     -41.740  48.253  19.161  1.00  0.00    -0.270 OA
ATOM     33  H   UNL     1     -42.905  45.835  17.388  1.00  0.00     0.170 HD
BRANCH  31  34
ATOM     34  C   UNL     1     -42.023  45.956  19.690  1.00  0.00     0.068 C 
ATOM     35  C   UNL     1     -42.230  44.722  19.210  1.00  0.00    -0.006 C 
BRANCH  35  36
ATOM     36  C   UNL     1     -42.148  43.487  20.055  1.00  0.00     0.111 C 
BRANCH  36  37
ATOM     37  N   UNL     1     -43.471  43.032  20.469  1.00  0.00    -0.306 NA
ATOM     38  C   UNL     1     -43.366  42.086  21.580  1.00  0.00     0.105 C 
ATOM     39  C   UNL     1     -44.180  42.419  19.345  1.00  0.00     0.105 C 
ENDBRANCH  36  37
ENDBRANCH  35  36
ENDBRANCH  31  34
ENDBRANCH   7  30
BRANCH   8  40
ATOM     40  O   UNL     1     -45.248  47.485  16.736  1.00  0.00    -0.492 OA
BRANCH  40  41
ATOM     41  C   UNL     1     -46.258  46.843  15.961  1.00  0.00     0.226 C 
ATOM     42  C   UNL     1     -45.741  45.500  15.491  1.00  0.00     0.049 C 
ENDBRANCH  40  41
ENDBRANCH   8  40
TORSDOF 11
ENDMDL
MODEL 5
REMARK VINA RESULT:    -8.559      3.542      7.509
REMARK INTER + INTRA:         -15.770
REMARK INTER:                 -14.286
REMARK INTRA:                  -1.483
REMARK UNBOUND:                -1.706
REMARK SMILES CCOc1cc2ncc(C#N)c(Nc3ccc(OCc4ccccn4)c(Cl)c3)c2cc1NC(=O)/C=C/CN(C)C
REMARK SMILES IDX 7 1 11 2 29 3 12 4 6 5 30 6 31 7 4 8 5 9 9 10 8 11 10 12
REMARK SMILES IDX 13 13 14 15 26 16 28 17 17 18 16 19 15 20 27 21 18 22 19 23
REMARK SMILES IDX 20 24 25 25 21 26 24 27 22 28 23 29 32 30 33 31 34 32 35 34
REMARK SMILES IDX 36 35 37 36 38 37 39 38 40 39 3 40 2 41 1 42
REMARK H PARENT 13 14 32 33
ROOT
ATOM      1  N   UNL     1     -42.938  45.558  19.590  1.00  0.00    -0.255 NA
ATOM      2  N   UNL     1     -38.151  45.230  19.843  1.00  0.00    -0.192 NA
ATOM      3  C   UNL     1     -42.222  46.440  17.465  1.00  0.00     0.027 A 
ATOM      4  C   UNL     1     -40.888  46.223  17.831  1.00  0.00     0.068 A 
ATOM      5  C   UNL     1     -43.230  46.088  18.388  1.00  0.00     0.076 A 
ATOM      6  C   UNL     1     -42.563  46.991  16.218  1.00  0.00     0.042 A 
ATOM      7  C   UNL     1     -43.898  47.197  15.880  1.00  0.00     0.084 A 
ATOM      8  C   UNL     1     -44.895  46.853  16.784  1.00  0.00     0.144 A 
ATOM      9  C   UNL     1     -44.556  46.304  18.024  1.00  0.00     0.077 A 
ATOM     10  C   UNL     1     -40.583  45.675  19.070  1.00  0.00     0.094 A 
ATOM     11  C   UNL     1     -41.637  45.363  19.905  1.00  0.00     0.133 A 
ATOM     12  C   UNL     1     -39.241  45.430  19.497  1.00  0.00     0.103 C 
ENDROOT
BRANCH   4  13
ATOM     13  N   UNL     1     -39.830  46.555  16.945  1.00  0.00    -0.354 N 
ATOM     14  H   UNL     1     -39.476  45.751  16.436  1.00  0.00     0.167 HD
BRANCH  13  15
ATOM     15  C   UNL     1     -39.199  47.770  16.642  1.00  0.00     0.040 A 
ATOM     16  C   UNL     1     -39.088  49.815  15.348  1.00  0.00     0.085 A 
ATOM     17  C   UNL     1     -39.717  48.607  15.648  1.00  0.00     0.050 A 
ATOM     18  C   UNL     1     -37.937  50.194  16.040  1.00  0.00     0.138 A 
ATOM     19  C   UNL     1     -37.415  49.364  17.032  1.00  0.00     0.050 A 
ATOM     20  C   UNL     1     -38.044  48.156  17.332  1.00  0.00     0.030 A 
ATOM     21  Cl  UNL     1     -39.755  50.823  14.117  1.00  0.00    -0.080 Cl
BRANCH  18  22
ATOM     22  O   UNL     1     -37.303  51.370  15.768  1.00  0.00    -0.486 OA
BRANCH  22  23
ATOM     23  C   UNL     1     -36.373  51.367  14.686  1.00  0.00     0.285 C 
BRANCH  23  24
ATOM     24  C   UNL     1     -35.023  51.770  15.201  1.00  0.00     0.078 A 
ATOM     25  N   UNL     1     -34.006  51.720  14.316  1.00  0.00    -0.258 NA
ATOM     26  C   UNL     1     -34.897  52.161  16.520  1.00  0.00     0.027 A 
ATOM     27  C   UNL     1     -32.793  52.085  14.786  1.00  0.00     0.111 A 
ATOM     28  C   UNL     1     -33.633  52.530  16.966  1.00  0.00     0.004 A 
ATOM     29  C   UNL     1     -32.555  52.493  16.088  1.00  0.00     0.020 A 
ENDBRANCH  23  24
ENDBRANCH  22  23
ENDBRANCH  18  22
ENDBRANCH  13  15
ENDBRANCH   4  13
BRANCH   7  30
ATOM     30  N   UNL     1     -44.217  47.747  14.636  1.00  0.00    -0.319 N 
ATOM     31  C   UNL     1     -43.756  48.948  14.081  1.00  0.00     0.248 C 
ATOM     32  O   UNL     1     -42.980  49.748  14.590  1.00  0.00    -0.270 OA
ATOM     33  H   UNL     1     -44.865  47.192  14.082  1.00  0.00     0.170 HD
BRANCH  31  34
ATOM     34  C   UNL     1     -44.335  49.184  12.725  1.00  0.00     0.068 C 
ATOM     35  C   UNL     1     -45.612  49.568  12.587  1.00  0.00    -0.006 C 
BRANCH  35  36
ATOM     36  C   UNL     1     -46.252  49.830  11.257  1.00  0.00     0.111 C 
BRANCH  36  37
ATOM     37  N   UNL     1     -47.260  50.881  11.345  1.00  0.00    -0.306 NA
ATOM     38  C   UNL     1     -48.541  50.329  11.786  1.00  0.00     0.105 C 
ATOM     39  C   UNL     1     -47.414  51.557  10.056  1.00  0.00     0.105 C 
ENDBRANCH  36  37
ENDBRANCH  35  36
ENDBRANCH  31  34
ENDBRANCH   7  30
BRANCH   8  40
ATOM     40  O   UNL     1     -46.211  47.044  16.483  1.00  0.00    -0.492 OA
BRANCH  40  41
ATOM     41  C   UNL     1     -47.167  46.424  17.340  1.00  0.00     0.226 C 
ATOM     42  C   UNL     1     -48.492  46.330  16.613  1.00  0.00     0.049 C 
ENDBRANCH  40  41
ENDBRANCH   8  40
TORSDOF 11
ENDMDL
MODEL 6
REMARK VINA RESULT:    -8.322      2.609      3.933
REMARK INTER + INTRA:         -15.379
REMARK INTER:                 -13.668
REMARK INTRA:                  -1.711
REMARK UNBOUND:                -1.706
REMARK SMILES CCOc1cc2ncc(C#N)c(Nc3ccc(OCc4ccccn4)c(Cl)c3)c2cc1NC(=O)/C=C/CN(C)C
REMARK SMILES IDX 7 1 11 2 29 3 12 4 6 5 30 6 31 7 4 8 5 9 9 10 8 11 10 12
REMARK SMILES IDX 13 13 14 15 26 16 28 17 17 18 16 19 15 20 27 21 18 22 19 23
REMARK SMILES IDX 20 24 25 25 21 26 24 27 22 28 23 29 32 30 33 31 34 32 35 34
REMARK SMILES IDX 36 35 37 36 38 37 39 38 40 39 3 40 2 41 1 42
REMARK H PARENT 13 14 32 33
ROOT
ATOM      1  N   UNL     1     -45.522  45.772  15.893  1.00  0.00    -0.255 NA
ATOM      2  N   UNL     1     -45.095  49.628  13.058  1.00  0.00    -0.192 NA
ATOM      3  C   UNL     1     -43.793  47.053  16.978  1.00  0.00     0.027 A 
ATOM      4  C   UNL     1     -43.900  48.031  15.981  1.00  0.00     0.068 A 
ATOM      5  C   UNL     1     -44.635  45.924  16.894  1.00  0.00     0.076 A 
ATOM      6  C   UNL     1     -42.878  47.179  18.038  1.00  0.00     0.042 A 
ATOM      7  C   UNL     1     -42.792  46.191  19.015  1.00  0.00     0.084 A 
ATOM      8  C   UNL     1     -43.618  45.076  18.938  1.00  0.00     0.144 A 
ATOM      9  C   UNL     1     -44.528  44.952  17.884  1.00  0.00     0.077 A 
ATOM     10  C   UNL     1     -44.815  47.879  14.948  1.00  0.00     0.094 A 
ATOM     11  C   UNL     1     -45.595  46.740  14.951  1.00  0.00     0.133 A 
ATOM     12  C   UNL     1     -44.969  48.844  13.905  1.00  0.00     0.103 C 
ENDROOT
BRANCH   4  13
ATOM     13  N   UNL     1     -43.081  49.190  16.012  1.00  0.00    -0.354 N 
ATOM     14  H   UNL     1     -43.535  49.980  16.460  1.00  0.00     0.167 HD
BRANCH  13  15
ATOM     15  C   UNL     1     -41.780  49.439  15.552  1.00  0.00     0.040 A 
ATOM     16  C   UNL     1     -40.280  50.320  13.867  1.00  0.00     0.085 A 
ATOM     17  C   UNL     1     -41.575  50.073  14.323  1.00  0.00     0.050 A 
ATOM     18  C   UNL     1     -39.183  49.934  14.637  1.00  0.00     0.138 A 
ATOM     19  C   UNL     1     -39.381  49.300  15.864  1.00  0.00     0.050 A 
ATOM     20  C   UNL     1     -40.675  49.053  16.320  1.00  0.00     0.030 A 
ATOM     21  Cl  UNL     1     -40.064  51.105  12.346  1.00  0.00    -0.080 Cl
BRANCH  18  22
ATOM     22  O   UNL     1     -37.906  50.163  14.216  1.00  0.00    -0.486 OA
BRANCH  22  23
ATOM     23  C   UNL     1     -36.870  50.021  15.186  1.00  0.00     0.285 C 
BRANCH  23  24
ATOM     24  C   UNL     1     -36.164  51.336  15.342  1.00  0.00     0.078 A 
ATOM     25  N   UNL     1     -34.817  51.290  15.386  1.00  0.00    -0.258 NA
ATOM     26  C   UNL     1     -36.913  52.494  15.428  1.00  0.00     0.027 A 
ATOM     27  C   UNL     1     -34.187  52.477  15.527  1.00  0.00     0.111 A 
ATOM     28  C   UNL     1     -36.229  53.695  15.571  1.00  0.00     0.004 A 
ATOM     29  C   UNL     1     -34.839  53.695  15.622  1.00  0.00     0.020 A 
ENDBRANCH  23  24
ENDBRANCH  22  23
ENDBRANCH  18  22
ENDBRANCH  13  15
ENDBRANCH   4  13
BRANCH   7  30
ATOM     30  N   UNL     1     -41.876  46.333  20.060  1.00  0.00    -0.319 N 
ATOM     31  C   UNL     1     -42.131  46.707  21.385  1.00  0.00     0.248 C 
ATOM     32  O   UNL     1     -43.218  46.984  21.879  1.00  0.00    -0.270 OA
ATOM     33  H   UNL     1     -40.910  46.135  19.806  1.00  0.00     0.170 HD
BRANCH  31  34
ATOM     34  C   UNL     1     -40.879  46.744  22.197  1.00  0.00     0.068 C 
ATOM     35  C   UNL     1     -39.736  46.242  21.709  1.00  0.00    -0.006 C 
BRANCH  35  36
ATOM     36  C   UNL     1     -38.443  46.255  22.467  1.00  0.00     0.111 C 
BRANCH  36  37
ATOM     37  N   UNL     1     -37.452  47.110  21.822  1.00  0.00    -0.306 NA
ATOM     38  C   UNL     1     -37.774  47.292  20.406  1.00  0.00     0.105 C 
ATOM     39  C   UNL     1     -36.110  46.544  21.969  1.00  0.00     0.105 C 
ENDBRANCH  36  37
ENDBRANCH  35  36
ENDBRANCH  31  34
ENDBRANCH   7  30
BRANCH   8  40
ATOM     40  O   UNL     1     -43.556  44.091  19.879  1.00  0.00    -0.492 OA
BRANCH  40  41
ATOM     41  C   UNL     1     -42.696  42.989  19.605  1.00  0.00     0.226 C 
ATOM     42  C   UNL     1     -42.110  42.486  20.907  1.00  0.00     0.049 C 
ENDBRANCH  40  41
ENDBRANCH   8  40
TORSDOF 11
ENDMDL
MODEL 7
REMARK VINA RESULT:    -8.274      4.781      8.815
REMARK INTER + INTRA:         -15.301
REMARK INTER:                 -14.061
REMARK INTRA:                  -1.240
REMARK UNBOUND:                -1.706
REMARK SMILES CCOc1cc2ncc(C#N)c(Nc3ccc(OCc4ccccn4)c(Cl)c3)c2cc1NC(=O)/C=C/CN(C)C
REMARK SMILES IDX 7 1 11 2 29 3 12 4 6 5 30 6 31 7 4 8 5 9 9 10 8 11 10 12
REMARK SMILES IDX 13 13 14 15 26 16 28 17 17 18 16 19 15 20 27 21 18 22 19 23
REMARK SMILES IDX 20 24 25 25 21 26 24 27 22 28 23 29 32 30 33 31 34 32 35 34
REMARK SMILES IDX 36 35 37 36 38 37 39 38 40 39 3 40 2 41 1 42
REMARK H PARENT 13 14 32 33
ROOT
ATOM      1  N   UNL     1     -45.375  45.269  16.760  1.00  0.00    -0.255 NA
ATOM      2  N   UNL     1     -42.065  47.225  19.642  1.00  0.00    -0.192 NA
ATOM      3  C   UNL     1     -44.903  47.375  15.690  1.00  0.00     0.027 A 
ATOM      4  C   UNL     1     -43.977  47.674  16.699  1.00  0.00     0.068 A 
ATOM      5  C   UNL     1     -45.589  46.145  15.760  1.00  0.00     0.076 A 
ATOM      6  C   UNL     1     -45.150  48.267  14.632  1.00  0.00     0.042 A 
ATOM      7  C   UNL     1     -46.076  47.946  13.642  1.00  0.00     0.084 A 
ATOM      8  C   UNL     1     -46.755  46.735  13.706  1.00  0.00     0.144 A 
ATOM      9  C   UNL     1     -46.508  45.849  14.758  1.00  0.00     0.077 A 
ATOM     10  C   UNL     1     -43.754  46.772  17.730  1.00  0.00     0.094 A 
ATOM     11  C   UNL     1     -44.473  45.594  17.714  1.00  0.00     0.133 A 
ATOM     12  C   UNL     1     -42.822  47.022  18.785  1.00  0.00     0.103 C 
ENDROOT
BRANCH   4  13
ATOM     13  N   UNL     1     -43.256  48.896  16.682  1.00  0.00    -0.354 N 
ATOM     14  H   UNL     1     -43.725  49.636  17.195  1.00  0.00     0.167 HD
BRANCH  13  15
ATOM     15  C   UNL     1     -42.032  49.262  16.103  1.00  0.00     0.040 A 
ATOM     16  C   UNL     1     -40.781  50.223  14.265  1.00  0.00     0.085 A 
ATOM     17  C   UNL     1     -41.999  49.859  14.839  1.00  0.00     0.050 A 
ATOM     18  C   UNL     1     -39.588  49.990  14.951  1.00  0.00     0.138 A 
ATOM     19  C   UNL     1     -39.615  49.394  16.212  1.00  0.00     0.050 A 
ATOM     20  C   UNL     1     -40.833  49.031  16.786  1.00  0.00     0.030 A 
ATOM     21  Cl  UNL     1     -40.778  50.959  12.704  1.00  0.00    -0.080 Cl
BRANCH  18  22
ATOM     22  O   UNL     1     -38.384  50.336  14.414  1.00  0.00    -0.486 OA
BRANCH  22  23
ATOM     23  C   UNL     1     -37.222  50.036  15.185  1.00  0.00     0.285 C 
BRANCH  23  24
ATOM     24  C   UNL     1     -36.399  51.282  15.332  1.00  0.00     0.078 A 
ATOM     25  N   UNL     1     -35.061  51.116  15.352  1.00  0.00    -0.258 NA
ATOM     26  C   UNL     1     -37.040  52.501  15.437  1.00  0.00     0.027 A 
ATOM     27  C   UNL     1     -34.325  52.241  15.484  1.00  0.00     0.111 A 
ATOM     28  C   UNL     1     -36.249  53.637  15.571  1.00  0.00     0.004 A 
ATOM     29  C   UNL     1     -34.864  53.512  15.596  1.00  0.00     0.020 A 
ENDBRANCH  23  24
ENDBRANCH  22  23
ENDBRANCH  18  22
ENDBRANCH  13  15
ENDBRANCH   4  13
BRANCH   7  30
ATOM     30  N   UNL     1     -46.310  48.844  12.599  1.00  0.00    -0.319 N 
ATOM     31  C   UNL     1     -45.447  49.827  12.098  1.00  0.00     0.248 C 
ATOM     32  O   UNL     1     -44.314  50.085  12.489  1.00  0.00    -0.270 OA
ATOM     33  H   UNL     1     -47.225  48.757  12.163  1.00  0.00     0.170 HD
BRANCH  31  34
ATOM     34  C   UNL     1     -46.071  50.586  10.974  1.00  0.00     0.068 C 
ATOM     35  C   UNL     1     -46.747  51.719  11.209  1.00  0.00    -0.006 C 
BRANCH  35  36
ATOM     36  C   UNL     1     -47.389  52.533  10.126  1.00  0.00     0.111 C 
BRANCH  36  37
ATOM     37  N   UNL     1     -48.844  52.451  10.185  1.00  0.00    -0.306 NA
ATOM     38  C   UNL     1     -49.286  52.135  11.544  1.00  0.00     0.105 C 
ATOM     39  C   UNL     1     -49.342  51.447   9.243  1.00  0.00     0.105 C 
ENDBRANCH  36  37
ENDBRANCH  35  36
ENDBRANCH  31  34
ENDBRANCH   7  30
BRANCH   8  40
ATOM     40  O   UNL     1     -47.668  46.392  12.753  1.00  0.00    -0.492 OA
BRANCH  40  41
ATOM     41  C   UNL     1     -47.851  45.001  12.503  1.00  0.00     0.226 C 
ATOM     42  C   UNL     1     -49.329  44.679  12.565  1.00  0.00     0.049 C 
ENDBRANCH  40  41
ENDBRANCH   8  40
TORSDOF 11
ENDMDL
MODEL 8
REMARK VINA RESULT:    -8.239      2.777      7.860
REMARK INTER + INTRA:         -15.244
REMARK INTER:                 -13.652
REMARK INTRA:                  -1.592
REMARK UNBOUND:                -1.706
REMARK SMILES CCOc1cc2ncc(C#N)c(Nc3ccc(OCc4ccccn4)c(Cl)c3)c2cc1NC(=O)/C=C/CN(C)C
REMARK SMILES IDX 7 1 11 2 29 3 12 4 6 5 30 6 31 7 4 8 5 9 9 10 8 11 10 12
REMARK SMILES IDX 13 13 14 15 26 16 28 17 17 18 16 19 15 20 27 21 18 22 19 23
REMARK SMILES IDX 20 24 25 25 21 26 24 27 22 28 23 29 32 30 33 31 34 32 35 34
REMARK SMILES IDX 36 35 37 36 38 37 39 38 40 39 3 40 2 41 1 42
REMARK H PARENT 13 14 32 33
ROOT
ATOM      1  N   UNL     1     -44.530  48.489  15.357  1.00  0.00    -0.255 NA
ATOM      2  N   UNL     1     -44.851  44.683  18.272  1.00  0.00    -0.192 NA
ATOM      3  C   UNL     1     -42.228  48.021  15.891  1.00  0.00     0.027 A 
ATOM      4  C   UNL     1     -42.637  46.947  16.692  1.00  0.00     0.068 A 
ATOM      5  C   UNL     1     -43.221  48.776  15.233  1.00  0.00     0.076 A 
ATOM      6  C   UNL     1     -40.869  48.349  15.739  1.00  0.00     0.042 A 
ATOM      7  C   UNL     1     -40.489  49.422  14.938  1.00  0.00     0.084 A 
ATOM      8  C   UNL     1     -41.462  50.170  14.287  1.00  0.00     0.144 A 
ATOM      9  C   UNL     1     -42.813  49.844  14.438  1.00  0.00     0.077 A 
ATOM     10  C   UNL     1     -43.987  46.647  16.821  1.00  0.00     0.094 A 
ATOM     11  C   UNL     1     -44.884  47.443  16.138  1.00  0.00     0.133 A 
ATOM     12  C   UNL     1     -44.464  45.564  17.622  1.00  0.00     0.103 C 
ENDROOT
BRANCH   4  13
ATOM     13  N   UNL     1     -41.685  46.150  17.379  1.00  0.00    -0.354 N 
ATOM     14  H   UNL     1     -41.279  45.429  16.790  1.00  0.00     0.167 HD
BRANCH  13  15
ATOM     15  C   UNL     1     -41.204  46.178  18.696  1.00  0.00     0.040 A 
ATOM     16  C   UNL     1     -40.379  47.420  20.604  1.00  0.00     0.085 A 
ATOM     17  C   UNL     1     -40.857  47.393  19.294  1.00  0.00     0.050 A 
ATOM     18  C   UNL     1     -40.245  46.232  21.323  1.00  0.00     0.138 A 
ATOM     19  C   UNL     1     -40.589  45.017  20.731  1.00  0.00     0.050 A 
ATOM     20  C   UNL     1     -41.067  44.990  19.421  1.00  0.00     0.030 A 
ATOM     21  Cl  UNL     1     -39.961  48.937  21.312  1.00  0.00    -0.080 Cl
BRANCH  18  22
ATOM     22  O   UNL     1     -39.781  46.229  22.605  1.00  0.00    -0.486 OA
BRANCH  22  23
ATOM     23  C   UNL     1     -38.857  45.200  22.956  1.00  0.00     0.285 C 
BRANCH  23  24
ATOM     24  C   UNL     1     -37.474  45.634  22.568  1.00  0.00     0.078 A 
ATOM     25  N   UNL     1     -36.611  44.653  22.233  1.00  0.00    -0.258 NA
ATOM     26  C   UNL     1     -37.166  46.981  22.574  1.00  0.00     0.027 A 
ATOM     27  C   UNL     1     -35.367  45.049  21.885  1.00  0.00     0.111 A 
ATOM     28  C   UNL     1     -35.877  47.350  22.209  1.00  0.00     0.004 A 
ATOM     29  C   UNL     1     -34.954  46.371  21.856  1.00  0.00     0.020 A 
ENDBRANCH  23  24
ENDBRANCH  22  23
ENDBRANCH  18  22
ENDBRANCH  13  15
ENDBRANCH   4  13
BRANCH   7  30
ATOM     30  N   UNL     1     -39.135  49.734  14.800  1.00  0.00    -0.319 N 
ATOM     31  C   UNL     1     -38.144  49.734  15.791  1.00  0.00     0.248 C 
ATOM     32  O   UNL     1     -38.285  49.459  16.977  1.00  0.00    -0.270 OA
ATOM     33  H   UNL     1     -38.854  49.989  13.855  1.00  0.00     0.170 HD
BRANCH  31  34
ATOM     34  C   UNL     1     -36.814  50.127  15.238  1.00  0.00     0.068 C 
ATOM     35  C   UNL     1     -36.289  51.329  15.516  1.00  0.00    -0.006 C 
BRANCH  35  36
ATOM     36  C   UNL     1     -34.956  51.783  15.002  1.00  0.00     0.111 C 
BRANCH  36  37
ATOM     37  N   UNL     1     -34.192  52.475  16.034  1.00  0.00    -0.306 NA
ATOM     38  C   UNL     1     -33.902  53.849  15.623  1.00  0.00     0.105 C 
ATOM     39  C   UNL     1     -32.949  51.758  16.323  1.00  0.00     0.105 C 
ENDBRANCH  36  37
ENDBRANCH  35  36
ENDBRANCH  31  34
ENDBRANCH   7  30
BRANCH   8  40
ATOM     40  O   UNL     1     -41.122  51.228  13.497  1.00  0.00    -0.492 OA
BRANCH  40  41
ATOM     41  C   UNL     1     -41.032  50.985  12.095  1.00  0.00     0.226 C 
ATOM     42  C   UNL     1     -39.632  51.317  11.626  1.00  0.00     0.049 C 
ENDBRANCH  40  41
ENDBRANCH   8  40
TORSDOF 11
ENDMDL
MODEL 9
REMARK VINA RESULT:    -8.184      3.290      6.869
REMARK INTER + INTRA:         -15.153
REMARK INTER:                 -15.190
REMARK INTRA:                   0.037
REMARK UNBOUND:                -1.706
REMARK SMILES CCOc1cc2ncc(C#N)c(Nc3ccc(OCc4ccccn4)c(Cl)c3)c2cc1NC(=O)/C=C/CN(C)C
REMARK SMILES IDX 7 1 11 2 29 3 12 4 6 5 30 6 31 7 4 8 5 9 9 10 8 11 10 12
REMARK SMILES IDX 13 13 14 15 26 16 28 17 17 18 16 19 15 20 27 21 18 22 19 23
REMARK SMILES IDX 20 24 25 25 21 26 24 27 22 28 23 29 32 30 33 31 34 32 35 34
REMARK SMILES IDX 36 35 37 36 38 37 39 38 40 39 3 40 2 41 1 42
REMARK H PARENT 13 14 32 33
ROOT
ATOM      1  N   UNL     1     -40.893  46.649  17.891  1.00  0.00    -0.255 NA
ATOM      2  N   UNL     1     -37.057  49.528  18.189  1.00  0.00    -0.192 NA
ATOM      3  C   UNL     1     -41.357  48.342  16.241  1.00  0.00     0.027 A 
ATOM      4  C   UNL     1     -40.147  48.973  16.555  1.00  0.00     0.068 A 
ATOM      5  C   UNL     1     -41.696  47.166  16.942  1.00  0.00     0.076 A 
ATOM      6  C   UNL     1     -42.220  48.854  15.256  1.00  0.00     0.042 A 
ATOM      7  C   UNL     1     -43.418  48.207  14.963  1.00  0.00     0.084 A 
ATOM      8  C   UNL     1     -43.757  47.049  15.651  1.00  0.00     0.144 A 
ATOM      9  C   UNL     1     -42.899  46.540  16.629  1.00  0.00     0.077 A 
ATOM     10  C   UNL     1     -39.316  48.442  17.532  1.00  0.00     0.094 A 
ATOM     11  C   UNL     1     -39.732  47.288  18.165  1.00  0.00     0.133 A 
ATOM     12  C   UNL     1     -38.070  49.042  17.895  1.00  0.00     0.103 C 
ENDROOT
BRANCH   4  13
ATOM     13  N   UNL     1     -39.752  50.159  15.883  1.00  0.00    -0.354 N 
ATOM     14  H   UNL     1     -40.536  50.764  15.659  1.00  0.00     0.167 HD
BRANCH  13  15
ATOM     15  C   UNL     1     -38.498  50.645  15.484  1.00  0.00     0.040 A 
ATOM     16  C   UNL     1     -36.934  52.479  15.246  1.00  0.00     0.085 A 
ATOM     17  C   UNL     1     -38.182  51.998  15.644  1.00  0.00     0.050 A 
ATOM     18  C   UNL     1     -35.997  51.611  14.685  1.00  0.00     0.138 A 
ATOM     19  C   UNL     1     -36.307  50.261  14.522  1.00  0.00     0.050 A 
ATOM     20  C   UNL     1     -37.554  49.780  14.920  1.00  0.00     0.030 A 
ATOM     21  Cl  UNL     1     -36.577  54.154  15.460  1.00  0.00    -0.080 Cl
BRANCH  18  22
ATOM     22  O   UNL     1     -34.770  52.055  14.289  1.00  0.00    -0.486 OA
BRANCH  22  23
ATOM     23  C   UNL     1     -33.777  52.201  15.302  1.00  0.00     0.285 C 
BRANCH  23  24
ATOM     24  C   UNL     1     -32.419  52.073  14.676  1.00  0.00     0.078 A 
ATOM     25  N   UNL     1     -32.391  51.864  13.344  1.00  0.00    -0.258 NA
ATOM     26  C   UNL     1     -31.299  52.174  15.478  1.00  0.00     0.027 A 
ATOM     27  C   UNL     1     -31.166  51.749  12.787  1.00  0.00     0.111 A 
ATOM     28  C   UNL     1     -30.055  52.052  14.868  1.00  0.00     0.004 A 
ATOM     29  C   UNL     1     -29.980  51.836  13.497  1.00  0.00     0.020 A 
ENDBRANCH  23  24
ENDBRANCH  22  23
ENDBRANCH  18  22
ENDBRANCH  13  15
ENDBRANCH   4  13
BRANCH   7  30
ATOM     30  N   UNL     1     -44.262  48.732  13.982  1.00  0.00    -0.319 N 
ATOM     31  C   UNL     1     -43.922  49.557  12.902  1.00  0.00     0.248 C 
ATOM     32  O   UNL     1     -42.807  49.978  12.617  1.00  0.00    -0.270 OA
ATOM     33  H   UNL     1     -45.241  48.469  14.082  1.00  0.00     0.170 HD
BRANCH  31  34
ATOM     34  C   UNL     1     -45.117  49.903  12.077  1.00  0.00     0.068 C 
ATOM     35  C   UNL     1     -46.268  49.233  12.230  1.00  0.00    -0.006 C 
BRANCH  35  36
ATOM     36  C   UNL     1     -47.506  49.536  11.442  1.00  0.00     0.111 C 
BRANCH  36  37
ATOM     37  N   UNL     1     -48.420  48.399  11.422  1.00  0.00    -0.306 NA
ATOM     38  C   UNL     1     -49.342  48.461  12.556  1.00  0.00     0.105 C 
ATOM     39  C   UNL     1     -47.676  47.140  11.440  1.00  0.00     0.105 C 
ENDBRANCH  36  37
ENDBRANCH  35  36
ENDBRANCH  31  34
ENDBRANCH   7  30
BRANCH   8  40
ATOM     40  O   UNL     1     -44.923  46.393  15.387  1.00  0.00    -0.492 OA
BRANCH  40  41
ATOM     41  C   UNL     1     -45.834  46.233  16.472  1.00  0.00     0.226 C 
ATOM     42  C   UNL     1     -47.011  47.164  16.268  1.00  0.00     0.049 C 
ENDBRANCH  40  41
ENDBRANCH   8  40
TORSDOF 11
ENDMDL
MODEL 10
REMARK VINA RESULT:    -8.163      3.234      8.218
REMARK INTER + INTRA:         -15.118
REMARK INTER:                 -13.531
REMARK INTRA:                  -1.587
REMARK UNBOUND:                -1.706
REMARK SMILES CCOc1cc2ncc(C#N)c(Nc3ccc(OCc4ccccn4)c(Cl)c3)c2cc1NC(=O)/C=C/CN(C)C
REMARK SMILES IDX 7 1 11 2 29 3 12 4 6 5 30 6 31 7 4 8 5 9 9 10 8 11 10 12
REMARK SMILES IDX 13 13 14 15 26 16 28 17 17 18 16 19 15 20 27 21 18 22 19 23
REMARK SMILES IDX 20 24 25 25 21 26 24 27 22 28 23 29 32 30 33 31 34 32 35 34
REMARK SMILES IDX 36 35 37 36 38 37 39 38 40 39 3 40 2 41 1 42
REMARK H PARENT 13 14 32 33
ROOT
ATOM      1  N   UNL     1     -40.290  44.736  22.792  1.00  0.00    -0.255 NA
ATOM      2  N   UNL     1     -43.941  42.345  20.782  1.00  0.00    -0.192 NA
ATOM      3  C   UNL     1     -40.121  45.346  20.467  1.00  0.00     0.027 A 
ATOM      4  C   UNL     1     -41.236  44.546  20.183  1.00  0.00     0.068 A 
ATOM      5  C   UNL     1     -39.675  45.413  21.804  1.00  0.00     0.076 A 
ATOM      6  C   UNL     1     -39.456  46.066  19.460  1.00  0.00     0.042 A 
ATOM      7  C   UNL     1     -38.350  46.852  19.770  1.00  0.00     0.084 A 
ATOM      8  C   UNL     1     -37.906  46.923  21.085  1.00  0.00     0.144 A 
ATOM      9  C   UNL     1     -38.568  46.207  22.086  1.00  0.00     0.077 A 
ATOM     10  C   UNL     1     -41.872  43.848  21.200  1.00  0.00     0.094 A 
ATOM     11  C   UNL     1     -41.363  43.976  22.476  1.00  0.00     0.133 A 
ATOM     12  C   UNL     1     -43.014  43.018  20.969  1.00  0.00     0.103 C 
ENDROOT
BRANCH   4  13
ATOM     13  N   UNL     1     -41.732  44.439  18.857  1.00  0.00    -0.354 N 
ATOM     14  H   UNL     1     -41.863  43.476  18.563  1.00  0.00     0.167 HD
BRANCH  13  15
ATOM     15  C   UNL     1     -42.075  45.402  17.897  1.00  0.00     0.040 A 
ATOM     16  C   UNL     1     -43.731  46.824  16.846  1.00  0.00     0.085 A 
ATOM     17  C   UNL     1     -43.391  45.866  17.802  1.00  0.00     0.050 A 
ATOM     18  C   UNL     1     -42.758  47.322  15.980  1.00  0.00     0.138 A 
ATOM     19  C   UNL     1     -41.444  46.863  16.070  1.00  0.00     0.050 A 
ATOM     20  C   UNL     1     -41.104  45.905  17.025  1.00  0.00     0.030 A 
ATOM     21  Cl  UNL     1     -45.364  47.375  16.758  1.00  0.00    -0.080 Cl
BRANCH  18  22
ATOM     22  O   UNL     1     -43.063  48.259  15.037  1.00  0.00    -0.486 OA
BRANCH  22  23
ATOM     23  C   UNL     1     -42.708  49.609  15.330  1.00  0.00     0.285 C 
BRANCH  23  24
ATOM     24  C   UNL     1     -41.703  50.080  14.320  1.00  0.00     0.078 A 
ATOM     25  N   UNL     1     -42.149  50.229  13.056  1.00  0.00    -0.258 NA
ATOM     26  C   UNL     1     -40.407  50.331  14.729  1.00  0.00     0.027 A 
ATOM     27  C   UNL     1     -41.240  50.653  12.151  1.00  0.00     0.111 A 
ATOM     28  C   UNL     1     -39.501  50.766  13.770  1.00  0.00     0.004 A 
ATOM     29  C   UNL     1     -39.917  50.933  12.454  1.00  0.00     0.020 A 
ENDBRANCH  23  24
ENDBRANCH  22  23
ENDBRANCH  18  22
ENDBRANCH  13  15
ENDBRANCH   4  13
BRANCH   7  30
ATOM     30  N   UNL     1     -37.701  47.560  18.756  1.00  0.00    -0.319 N 
ATOM     31  C   UNL     1     -38.248  48.506  17.879  1.00  0.00     0.248 C 
ATOM     32  O   UNL     1     -39.411  48.890  17.838  1.00  0.00    -0.270 OA
ATOM     33  H   UNL     1     -36.710  47.348  18.660  1.00  0.00     0.170 HD
BRANCH  31  34
ATOM     34  C   UNL     1     -37.221  49.038  16.934  1.00  0.00     0.068 C 
ATOM     35  C   UNL     1     -37.081  50.359  16.753  1.00  0.00    -0.006 C 
BRANCH  35  36
ATOM     36  C   UNL     1     -36.066  50.959  15.828  1.00  0.00     0.111 C 
BRANCH  36  37
ATOM     37  N   UNL     1     -35.813  52.360  16.146  1.00  0.00    -0.306 NA
ATOM     38  C   UNL     1     -36.813  53.219  15.511  1.00  0.00     0.105 C 
ATOM     39  C   UNL     1     -34.467  52.749  15.724  1.00  0.00     0.105 C 
ENDBRANCH  36  37
ENDBRANCH  35  36
ENDBRANCH  31  34
ENDBRANCH   7  30
BRANCH   8  40
ATOM     40  O   UNL     1     -36.825  47.683  21.420  1.00  0.00    -0.492 OA
BRANCH  40  41
ATOM     41  C   UNL     1     -35.964  47.172  22.435  1.00  0.00     0.226 C 
ATOM     42  C   UNL     1     -34.822  46.424  21.783  1.00  0.00     0.049 C 
ENDBRANCH  40  41
ENDBRANCH   8  40
TORSDOF 11
ENDMDL
MODEL 11
REMARK VINA RESULT:    -8.148      3.792      7.809
REMARK INTER + INTRA:         -15.093
REMARK INTER:                 -13.399
REMARK INTRA:                  -1.693
REMARK UNBOUND:                -1.706
REMARK SMILES CCOc1cc2ncc(C#N)c(Nc3ccc(OCc4ccccn4)c(Cl)c3)c2cc1NC(=O)/C=C/CN(C)C
REMARK SMILES IDX 7 1 11 2 29 3 12 4 6 5 30 6 31 7 4 8 5 9 9 10 8 11 10 12
REMARK SMILES IDX 13 13 14 15 26 16 28 17 17 18 16 19 15 20 27 21 18 22 19 23
REMARK SMILES IDX 20 24 25 25 21 26 24 27 22 28 23 29 32 30 33 31 34 32 35 34
REMARK SMILES IDX 36 35 37 36 38 37 39 38 40 39 3 40 2 41 1 42
REMARK H PARENT 13 14 32 33
ROOT
ATOM      1  N   UNL     1     -42.673  46.897  21.852  1.00  0.00    -0.255 NA
ATOM      2  N   UNL     1     -37.993  47.630  21.049  1.00  0.00    -0.192 NA
ATOM      3  C   UNL     1     -42.445  46.415  19.503  1.00  0.00     0.027 A 
ATOM      4  C   UNL     1     -41.076  46.701  19.582  1.00  0.00     0.068 A 
ATOM      5  C   UNL     1     -43.217  46.527  20.678  1.00  0.00     0.076 A 
ATOM      6  C   UNL     1     -43.047  46.026  18.293  1.00  0.00     0.042 A 
ATOM      7  C   UNL     1     -44.410  45.748  18.242  1.00  0.00     0.084 A 
ATOM      8  C   UNL     1     -45.176  45.857  19.396  1.00  0.00     0.144 A 
ATOM      9  C   UNL     1     -44.577  46.243  20.598  1.00  0.00     0.077 A 
ATOM     10  C   UNL     1     -40.512  47.082  20.792  1.00  0.00     0.094 A 
ATOM     11  C   UNL     1     -41.347  47.164  21.888  1.00  0.00     0.133 A 
ATOM     12  C   UNL     1     -39.122  47.385  20.934  1.00  0.00     0.103 C 
ENDROOT
BRANCH   4  13
ATOM     13  N   UNL     1     -40.248  46.605  18.434  1.00  0.00    -0.354 N 
ATOM     14  H   UNL     1     -39.953  45.653  18.241  1.00  0.00     0.167 HD
BRANCH  13  15
ATOM     15  C   UNL     1     -39.775  47.566  17.528  1.00  0.00     0.040 A 
ATOM     16  C   UNL     1     -40.196  49.216  15.806  1.00  0.00     0.085 A 
ATOM     17  C   UNL     1     -40.668  48.261  16.706  1.00  0.00     0.050 A 
ATOM     18  C   UNL     1     -38.829  49.481  15.721  1.00  0.00     0.138 A 
ATOM     19  C   UNL     1     -37.933  48.789  16.537  1.00  0.00     0.050 A 
ATOM     20  C   UNL     1     -38.405  47.835  17.437  1.00  0.00     0.030 A 
ATOM     21  Cl  UNL     1     -41.326  50.056  14.809  1.00  0.00    -0.080 Cl
BRANCH  18  22
ATOM     22  O   UNL     1     -38.341  50.409  14.850  1.00  0.00    -0.486 OA
BRANCH  22  23
ATOM     23  C   UNL     1     -36.958  50.314  14.512  1.00  0.00     0.285 C 
BRANCH  23  24
ATOM     24  C   UNL     1     -36.269  51.584  14.917  1.00  0.00     0.078 A 
ATOM     25  N   UNL     1     -34.926  51.526  15.031  1.00  0.00    -0.258 NA
ATOM     26  C   UNL     1     -37.027  52.716  15.144  1.00  0.00     0.027 A 
ATOM     27  C   UNL     1     -34.310  52.672  15.395  1.00  0.00     0.111 A 
ATOM     28  C   UNL     1     -36.358  53.877  15.517  1.00  0.00     0.004 A 
ATOM     29  C   UNL     1     -34.973  53.862  15.647  1.00  0.00     0.020 A 
ENDBRANCH  23  24
ENDBRANCH  22  23
ENDBRANCH  18  22
ENDBRANCH  13  15
ENDBRANCH   4  13
BRANCH   7  30
ATOM     30  N   UNL     1     -44.990  45.364  17.031  1.00  0.00    -0.319 N 
ATOM     31  C   UNL     1     -45.401  46.185  15.972  1.00  0.00     0.248 C 
ATOM     32  O   UNL     1     -45.328  47.407  15.914  1.00  0.00    -0.270 OA
ATOM     33  H   UNL     1     -45.121  44.360  16.924  1.00  0.00     0.170 HD
BRANCH  31  34
ATOM     34  C   UNL     1     -45.976  45.387  14.849  1.00  0.00     0.068 C 
ATOM     35  C   UNL     1     -46.526  45.999  13.790  1.00  0.00    -0.006 C 
BRANCH  35  36
ATOM     36  C   UNL     1     -47.112  45.259  12.626  1.00  0.00     0.111 C 
BRANCH  36  37
ATOM     37  N   UNL     1     -47.855  46.151  11.743  1.00  0.00    -0.306 NA
ATOM     38  C   UNL     1     -47.273  47.494  11.761  1.00  0.00     0.105 C 
ATOM     39  C   UNL     1     -49.265  46.203  12.131  1.00  0.00     0.105 C 
ENDBRANCH  36  37
ENDBRANCH  35  36
ENDBRANCH  31  34
ENDBRANCH   7  30
BRANCH   8  40
ATOM     40  O   UNL     1     -46.513  45.592  19.377  1.00  0.00    -0.492 OA
BRANCH  40  41
ATOM     41  C   UNL     1     -47.322  46.283  20.327  1.00  0.00     0.226 C 
ATOM     42  C   UNL     1     -48.627  46.676  19.669  1.00  0.00     0.049 C 
ENDBRANCH  40  41
ENDBRANCH   8  40
TORSDOF 11
ENDMDL
MODEL 12
REMARK VINA RESULT:    -8.067      4.408      9.500
REMARK INTER + INTRA:         -14.960
REMARK INTER:                 -13.026
REMARK INTRA:                  -1.934
REMARK UNBOUND:                -1.706
REMARK SMILES CCOc1cc2ncc(C#N)c(Nc3ccc(OCc4ccccn4)c(Cl)c3)c2cc1NC(=O)/C=C/CN(C)C
REMARK SMILES IDX 7 1 11 2 29 3 12 4 6 5 30 6 31 7 4 8 5 9 9 10 8 11 10 12
REMARK SMILES IDX 13 13 14 15 26 16 28 17 17 18 16 19 15 20 27 21 18 22 19 23
REMARK SMILES IDX 20 24 25 25 21 26 24 27 22 28 23 29 32 30 33 31 34 32 35 34
REMARK SMILES IDX 36 35 37 36 38 37 39 38 40 39 3 40 2 41 1 42
REMARK H PARENT 13 14 32 33
ROOT
ATOM      1  N   UNL     1     -38.377  50.523  15.828  1.00  0.00    -0.255 NA
ATOM      2  N   UNL     1     -40.768  51.309  11.736  1.00  0.00    -0.192 NA
ATOM      3  C   UNL     1     -39.857  48.627  15.693  1.00  0.00     0.027 A 
ATOM      4  C   UNL     1     -40.371  49.121  14.488  1.00  0.00     0.068 A 
ATOM      5  C   UNL     1     -38.847  49.370  16.339  1.00  0.00     0.076 A 
ATOM      6  C   UNL     1     -40.324  47.426  16.255  1.00  0.00     0.042 A 
ATOM      7  C   UNL     1     -39.796  46.958  17.455  1.00  0.00     0.084 A 
ATOM      8  C   UNL     1     -38.800  47.685  18.096  1.00  0.00     0.144 A 
ATOM      9  C   UNL     1     -38.336  48.878  17.537  1.00  0.00     0.077 A 
ATOM     10  C   UNL     1     -39.888  50.309  13.958  1.00  0.00     0.094 A 
ATOM     11  C   UNL     1     -38.899  50.966  14.662  1.00  0.00     0.133 A 
ATOM     12  C   UNL     1     -40.374  50.862  12.731  1.00  0.00     0.103 C 
ENDROOT
BRANCH   4  13
ATOM     13  N   UNL     1     -41.389  48.418  13.791  1.00  0.00    -0.354 N 
ATOM     14  H   UNL     1     -41.028  47.876  13.011  1.00  0.00     0.167 HD
BRANCH  13  15
ATOM     15  C   UNL     1     -42.775  48.328  13.982  1.00  0.00     0.040 A 
ATOM     16  C   UNL     1     -44.694  47.211  14.950  1.00  0.00     0.085 A 
ATOM     17  C   UNL     1     -43.315  47.299  14.761  1.00  0.00     0.050 A 
ATOM     18  C   UNL     1     -45.541  48.150  14.361  1.00  0.00     0.138 A 
ATOM     19  C   UNL     1     -45.008  49.178  13.583  1.00  0.00     0.050 A 
ATOM     20  C   UNL     1     -43.630  49.266  13.394  1.00  0.00     0.030 A 
ATOM     21  Cl  UNL     1     -45.326  45.930  15.917  1.00  0.00    -0.080 Cl
BRANCH  18  22
ATOM     22  O   UNL     1     -46.893  48.088  14.530  1.00  0.00    -0.486 OA
BRANCH  22  23
ATOM     23  C   UNL     1     -47.701  48.470  13.418  1.00  0.00     0.285 C 
BRANCH  23  24
ATOM     24  C   UNL     1     -48.116  47.238  12.670  1.00  0.00     0.078 A 
ATOM     25  N   UNL     1     -48.085  47.316  11.324  1.00  0.00    -0.258 NA
ATOM     26  C   UNL     1     -48.495  46.116  13.382  1.00  0.00     0.027 A 
ATOM     27  C   UNL     1     -48.460  46.204  10.655  1.00  0.00     0.111 A 
ATOM     28  C   UNL     1     -48.873  44.990  12.659  1.00  0.00     0.004 A 
ATOM     29  C   UNL     1     -48.857  45.027  11.269  1.00  0.00     0.020 A 
ENDBRANCH  23  24
ENDBRANCH  22  23
ENDBRANCH  18  22
ENDBRANCH  13  15
ENDBRANCH   4  13
BRANCH   7  30
ATOM     30  N   UNL     1     -40.273  45.763  17.999  1.00  0.00    -0.319 N 
ATOM     31  C   UNL     1     -41.513  45.527  18.607  1.00  0.00     0.248 C 
ATOM     32  O   UNL     1     -42.418  46.335  18.779  1.00  0.00    -0.270 OA
ATOM     33  H   UNL     1     -39.625  44.980  17.935  1.00  0.00     0.170 HD
BRANCH  31  34
ATOM     34  C   UNL     1     -41.641  44.110  19.062  1.00  0.00     0.068 C 
ATOM     35  C   UNL     1     -42.522  43.778  20.016  1.00  0.00    -0.006 C 
BRANCH  35  36
ATOM     36  C   UNL     1     -42.708  42.376  20.511  1.00  0.00     0.111 C 
BRANCH  36  37
ATOM     37  N   UNL     1     -44.121  42.030  20.623  1.00  0.00    -0.306 NA
ATOM     38  C   UNL     1     -44.762  42.052  19.308  1.00  0.00     0.105 C 
ATOM     39  C   UNL     1     -44.805  42.947  21.536  1.00  0.00     0.105 C 
ENDBRANCH  36  37
ENDBRANCH  35  36
ENDBRANCH  31  34
ENDBRANCH   7  30
BRANCH   8  40
ATOM     40  O   UNL     1     -38.264  47.253  19.273  1.00  0.00    -0.492 OA
BRANCH  40  41
ATOM     41  C   UNL     1     -38.572  48.010  20.441  1.00  0.00     0.226 C 
ATOM     42  C   UNL     1     -39.549  47.227  21.292  1.00  0.00     0.049 C 
ENDBRANCH  40  41
ENDBRANCH   8  40
TORSDOF 11
ENDMDL
MODEL 13
REMARK VINA RESULT:    -8.008      3.500      7.982
REMARK INTER + INTRA:         -14.864
REMARK INTER:                 -13.358
REMARK INTRA:                  -1.506
REMARK UNBOUND:                -1.706
REMARK SMILES CCOc1cc2ncc(C#N)c(Nc3ccc(OCc4ccccn4)c(Cl)c3)c2cc1NC(=O)/C=C/CN(C)C
REMARK SMILES IDX 7 1 11 2 29 3 12 4 6 5 30 6 31 7 4 8 5 9 9 10 8 11 10 12
REMARK SMILES IDX 13 13 14 15 26 16 28 17 17 18 16 19 15 20 27 21 18 22 19 23
REMARK SMILES IDX 20 24 25 25 21 26 24 27 22 28 23 29 32 30 33 31 34 32 35 34
REMARK SMILES IDX 36 35 37 36 38 37 39 38 40 39 3 40 2 41 1 42
REMARK H PARENT 13 14 32 33
ROOT
ATOM      1  N   UNL     1     -45.198  48.515  13.277  1.00  0.00    -0.255 NA
ATOM      2  N   UNL     1     -47.972  47.175  16.963  1.00  0.00    -0.192 NA
ATOM      3  C   UNL     1     -43.694  48.630  15.156  1.00  0.00     0.027 A 
ATOM      4  C   UNL     1     -44.729  48.214  16.003  1.00  0.00     0.068 A 
ATOM      5  C   UNL     1     -43.975  48.769  13.780  1.00  0.00     0.076 A 
ATOM      6  C   UNL     1     -42.405  48.903  15.648  1.00  0.00     0.042 A 
ATOM      7  C   UNL     1     -41.394  49.316  14.784  1.00  0.00     0.084 A 
ATOM      8  C   UNL     1     -41.666  49.455  13.428  1.00  0.00     0.144 A 
ATOM      9  C   UNL     1     -42.946  49.182  12.940  1.00  0.00     0.077 A 
ATOM     10  C   UNL     1     -45.990  47.950  15.486  1.00  0.00     0.094 A 
ATOM     11  C   UNL     1     -46.170  48.115  14.128  1.00  0.00     0.133 A 
ATOM     12  C   UNL     1     -47.084  47.523  16.302  1.00  0.00     0.103 C 
ENDROOT
BRANCH   4  13
ATOM     13  N   UNL     1     -44.506  48.055  17.396  1.00  0.00    -0.354 N 
ATOM     14  H   UNL     1     -45.227  48.495  17.961  1.00  0.00     0.167 HD
BRANCH  13  15
ATOM     15  C   UNL     1     -43.497  47.408  18.123  1.00  0.00     0.040 A 
ATOM     16  C   UNL     1     -42.444  45.369  18.897  1.00  0.00     0.085 A 
ATOM     17  C   UNL     1     -43.449  46.011  18.174  1.00  0.00     0.050 A 
ATOM     18  C   UNL     1     -41.482  46.119  19.574  1.00  0.00     0.138 A 
ATOM     19  C   UNL     1     -41.526  47.512  19.528  1.00  0.00     0.050 A 
ATOM     20  C   UNL     1     -42.530  48.155  18.804  1.00  0.00     0.030 A 
ATOM     21  Cl  UNL     1     -42.414  43.644  18.938  1.00  0.00    -0.080 Cl
BRANCH  18  22
ATOM     22  O   UNL     1     -40.489  45.517  20.289  1.00  0.00    -0.486 OA
BRANCH  22  23
ATOM     23  C   UNL     1     -39.174  45.571  19.739  1.00  0.00     0.285 C 
BRANCH  23  24
ATOM     24  C   UNL     1     -38.214  45.994  20.810  1.00  0.00     0.078 A 
ATOM     25  N   UNL     1     -37.288  45.085  21.178  1.00  0.00    -0.258 NA
ATOM     26  C   UNL     1     -38.324  47.262  21.348  1.00  0.00     0.027 A 
ATOM     27  C   UNL     1     -36.426  45.472  22.144  1.00  0.00     0.111 A 
ATOM     28  C   UNL     1     -37.419  47.624  22.339  1.00  0.00     0.004 A 
ATOM     29  C   UNL     1     -36.448  46.717  22.749  1.00  0.00     0.020 A 
ENDBRANCH  23  24
ENDBRANCH  22  23
ENDBRANCH  18  22
ENDBRANCH  13  15
ENDBRANCH   4  13
BRANCH   7  30
ATOM     30  N   UNL     1     -40.121  49.584  15.291  1.00  0.00    -0.319 N 
ATOM     31  C   UNL     1     -39.269  48.715  15.985  1.00  0.00     0.248 C 
ATOM     32  O   UNL     1     -39.486  47.546  16.280  1.00  0.00    -0.270 OA
ATOM     33  H   UNL     1     -39.791  50.533  15.125  1.00  0.00     0.170 HD
BRANCH  31  34
ATOM     34  C   UNL     1     -37.988  49.385  16.360  1.00  0.00     0.068 C 
ATOM     35  C   UNL     1     -37.692  50.603  15.885  1.00  0.00    -0.006 C 
BRANCH  35  36
ATOM     36  C   UNL     1     -36.429  51.334  16.229  1.00  0.00     0.111 C 
BRANCH  36  37
ATOM     37  N   UNL     1     -36.227  52.491  15.363  1.00  0.00    -0.306 NA
ATOM     38  C   UNL     1     -34.902  53.072  15.583  1.00  0.00     0.105 C 
ATOM     39  C   UNL     1     -37.267  53.494  15.593  1.00  0.00     0.105 C 
ENDBRANCH  36  37
ENDBRANCH  35  36
ENDBRANCH  31  34
ENDBRANCH   7  30
BRANCH   8  40
ATOM     40  O   UNL     1     -40.697  49.858  12.557  1.00  0.00    -0.492 OA
BRANCH  40  41
ATOM     41  C   UNL     1     -40.737  51.217  12.129  1.00  0.00     0.226 C 
ATOM     42  C   UNL     1     -39.401  51.579  11.515  1.00  0.00     0.049 C 
ENDBRANCH  40  41
ENDBRANCH   8  40
TORSDOF 11
ENDMDL
MODEL 14
REMARK VINA RESULT:    -8.002      3.647      9.621
REMARK INTER + INTRA:         -14.854
REMARK INTER:                 -13.225
REMARK INTRA:                  -1.628
REMARK UNBOUND:                -1.706
REMARK SMILES CCOc1cc2ncc(C#N)c(Nc3ccc(OCc4ccccn4)c(Cl)c3)c2cc1NC(=O)/C=C/CN(C)C
REMARK SMILES IDX 7 1 11 2 29 3 12 4 6 5 30 6 31 7 4 8 5 9 9 10 8 11 10 12
REMARK SMILES IDX 13 13 14 15 26 16 28 17 17 18 16 19 15 20 27 21 18 22 19 23
REMARK SMILES IDX 20 24 25 25 21 26 24 27 22 28 23 29 32 30 33 31 34 32 35 34
REMARK SMILES IDX 36 35 37 36 38 37 39 38 40 39 3 40 2 41 1 42
REMARK H PARENT 13 14 32 33
ROOT
ATOM      1  N   UNL     1     -40.037  44.540  23.012  1.00  0.00    -0.255 NA
ATOM      2  N   UNL     1     -43.986  42.320  21.414  1.00  0.00    -0.192 NA
ATOM      3  C   UNL     1     -40.085  45.137  20.679  1.00  0.00     0.027 A 
ATOM      4  C   UNL     1     -41.260  44.390  20.518  1.00  0.00     0.068 A 
ATOM      5  C   UNL     1     -39.499  45.186  21.961  1.00  0.00     0.076 A 
ATOM      6  C   UNL     1     -39.497  45.823  19.602  1.00  0.00     0.042 A 
ATOM      7  C   UNL     1     -38.329  46.557  19.789  1.00  0.00     0.084 A 
ATOM      8  C   UNL     1     -37.746  46.610  21.049  1.00  0.00     0.144 A 
ATOM      9  C   UNL     1     -38.332  45.928  22.119  1.00  0.00     0.077 A 
ATOM     10  C   UNL     1     -41.817  43.725  21.601  1.00  0.00     0.094 A 
ATOM     11  C   UNL     1     -41.172  43.832  22.816  1.00  0.00     0.133 A 
ATOM     12  C   UNL     1     -43.014  42.949  21.498  1.00  0.00     0.103 C 
ENDROOT
BRANCH   4  13
ATOM     13  N   UNL     1     -41.896  44.304  19.252  1.00  0.00    -0.354 N 
ATOM     14  H   UNL     1     -41.856  43.370  18.856  1.00  0.00     0.167 HD
BRANCH  13  15
ATOM     15  C   UNL     1     -42.565  45.252  18.465  1.00  0.00     0.040 A 
ATOM     16  C   UNL     1     -42.569  46.833  16.630  1.00  0.00     0.085 A 
ATOM     17  C   UNL     1     -41.902  45.890  17.412  1.00  0.00     0.050 A 
ATOM     18  C   UNL     1     -43.903  47.145  16.897  1.00  0.00     0.138 A 
ATOM     19  C   UNL     1     -44.569  46.513  17.947  1.00  0.00     0.050 A 
ATOM     20  C   UNL     1     -43.902  45.570  18.729  1.00  0.00     0.030 A 
ATOM     21  Cl  UNL     1     -41.721  47.598  15.337  1.00  0.00    -0.080 Cl
BRANCH  18  22
ATOM     22  O   UNL     1     -44.578  48.062  16.148  1.00  0.00    -0.486 OA
BRANCH  22  23
ATOM     23  C   UNL     1     -45.603  47.566  15.290  1.00  0.00     0.285 C 
BRANCH  23  24
ATOM     24  C   UNL     1     -45.635  48.393  14.038  1.00  0.00     0.078 A 
ATOM     25  N   UNL     1     -46.773  48.345  13.317  1.00  0.00    -0.258 NA
ATOM     26  C   UNL     1     -44.524  49.142  13.701  1.00  0.00     0.027 A 
ATOM     27  C   UNL     1     -46.795  49.092  12.191  1.00  0.00     0.111 A 
ATOM     28  C   UNL     1     -44.584  49.898  12.536  1.00  0.00     0.004 A 
ATOM     29  C   UNL     1     -45.739  49.878  11.761  1.00  0.00     0.020 A 
ENDBRANCH  23  24
ENDBRANCH  22  23
ENDBRANCH  18  22
ENDBRANCH  13  15
ENDBRANCH   4  13
BRANCH   7  30
ATOM     30  N   UNL     1     -37.758  47.232  18.708  1.00  0.00    -0.319 N 
ATOM     31  C   UNL     1     -38.364  48.165  17.856  1.00  0.00     0.248 C 
ATOM     32  O   UNL     1     -39.521  48.566  17.903  1.00  0.00    -0.270 OA
ATOM     33  H   UNL     1     -36.781  47.003  18.534  1.00  0.00     0.170 HD
BRANCH  31  34
ATOM     34  C   UNL     1     -37.413  48.660  16.817  1.00  0.00     0.068 C 
ATOM     35  C   UNL     1     -37.661  49.798  16.153  1.00  0.00    -0.006 C 
BRANCH  35  36
ATOM     36  C   UNL     1     -36.745  50.354  15.105  1.00  0.00     0.111 C 
BRANCH  36  37
ATOM     37  N   UNL     1     -37.381  51.432  14.355  1.00  0.00    -0.306 NA
ATOM     38  C   UNL     1     -37.348  52.679  15.119  1.00  0.00     0.105 C 
ATOM     39  C   UNL     1     -38.760  51.079  14.016  1.00  0.00     0.105 C 
ENDBRANCH  36  37
ENDBRANCH  35  36
ENDBRANCH  31  34
ENDBRANCH   7  30
BRANCH   8  40
ATOM     40  O   UNL     1     -36.602  47.319  21.264  1.00  0.00    -0.492 OA
BRANCH  40  41
ATOM     41  C   UNL     1     -35.706  46.819  22.254  1.00  0.00     0.226 C 
ATOM     42  C   UNL     1     -34.476  46.263  21.569  1.00  0.00     0.049 C 
ENDBRANCH  40  41
ENDBRANCH   8  40
TORSDOF 11
ENDMDL
MODEL 15
REMARK VINA RESULT:    -7.863      3.114      7.357
REMARK INTER + INTRA:         -14.626
REMARK INTER:                 -13.131
REMARK INTRA:                  -1.495
REMARK UNBOUND:                -1.706
REMARK SMILES CCOc1cc2ncc(C#N)c(Nc3ccc(OCc4ccccn4)c(Cl)c3)c2cc1NC(=O)/C=C/CN(C)C
REMARK SMILES IDX 7 1 11 2 29 3 12 4 6 5 30 6 31 7 4 8 5 9 9 10 8 11 10 12
REMARK SMILES IDX 13 13 14 15 26 16 28 17 17 18 16 19 15 20 27 21 18 22 19 23
REMARK SMILES IDX 20 24 25 25 21 26 24 27 22 28 23 29 32 30 33 31 34 32 35 34
REMARK SMILES IDX 36 35 37 36 38 37 39 38 40 39 3 40 2 41 1 42
REMARK H PARENT 13 14 32 33
ROOT
ATOM      1  N   UNL     1     -40.803  44.335  21.532  1.00  0.00    -0.255 NA
ATOM      2  N   UNL     1     -37.478  47.778  21.954  1.00  0.00    -0.192 NA
ATOM      3  C   UNL     1     -41.541  45.997  19.951  1.00  0.00     0.027 A 
ATOM      4  C   UNL     1     -40.446  46.802  20.294  1.00  0.00     0.068 A 
ATOM      5  C   UNL     1     -41.683  44.755  20.604  1.00  0.00     0.076 A 
ATOM      6  C   UNL     1     -42.479  46.404  18.987  1.00  0.00     0.042 A 
ATOM      7  C   UNL     1     -43.559  45.586  18.666  1.00  0.00     0.084 A 
ATOM      8  C   UNL     1     -43.704  44.360  19.305  1.00  0.00     0.144 A 
ATOM      9  C   UNL     1     -42.771  43.957  20.263  1.00  0.00     0.077 A 
ATOM     10  C   UNL     1     -39.536  46.371  21.250  1.00  0.00     0.094 A 
ATOM     11  C   UNL     1     -39.758  45.140  21.833  1.00  0.00     0.133 A 
ATOM     12  C   UNL     1     -38.400  47.148  21.639  1.00  0.00     0.103 C 
ENDROOT
BRANCH   4  13
ATOM     13  N   UNL     1     -40.249  48.062  19.672  1.00  0.00    -0.354 N 
ATOM     14  H   UNL     1     -40.625  48.832  20.217  1.00  0.00     0.167 HD
BRANCH  13  15
ATOM     15  C   UNL     1     -39.637  48.434  18.466  1.00  0.00     0.040 A 
ATOM     16  C   UNL     1     -39.773  48.872  16.088  1.00  0.00     0.085 A 
ATOM     17  C   UNL     1     -40.384  48.501  17.286  1.00  0.00     0.050 A 
ATOM     18  C   UNL     1     -38.412  49.177  16.063  1.00  0.00     0.138 A 
ATOM     19  C   UNL     1     -37.661  49.111  17.237  1.00  0.00     0.050 A 
ATOM     20  C   UNL     1     -38.272  48.741  18.435  1.00  0.00     0.030 A 
ATOM     21  Cl  UNL     1     -40.725  48.946  14.651  1.00  0.00    -0.080 Cl
BRANCH  18  22
ATOM     22  O   UNL     1     -37.790  49.543  14.907  1.00  0.00    -0.486 OA
BRANCH  22  23
ATOM     23  C   UNL     1     -38.008  50.876  14.449  1.00  0.00     0.285 C 
BRANCH  23  24
ATOM     24  C   UNL     1     -36.849  51.732  14.866  1.00  0.00     0.078 A 
ATOM     25  N   UNL     1     -35.637  51.141  14.864  1.00  0.00    -0.258 NA
ATOM     26  C   UNL     1     -37.079  53.047  15.221  1.00  0.00     0.027 A 
ATOM     27  C   UNL     1     -34.596  51.916  15.241  1.00  0.00     0.111 A 
ATOM     28  C   UNL     1     -35.984  53.814  15.602  1.00  0.00     0.004 A 
ATOM     29  C   UNL     1     -34.715  53.245  15.614  1.00  0.00     0.020 A 
ENDBRANCH  23  24
ENDBRANCH  22  23
ENDBRANCH  18  22
ENDBRANCH  13  15
ENDBRANCH   4  13
BRANCH   7  30
ATOM     30  N   UNL     1     -44.481  46.007  17.705  1.00  0.00    -0.319 N 
ATOM     31  C   UNL     1     -44.225  46.478  16.411  1.00  0.00     0.248 C 
ATOM     32  O   UNL     1     -43.130  46.610  15.876  1.00  0.00    -0.270 OA
ATOM     33  H   UNL     1     -45.454  45.957  18.003  1.00  0.00     0.170 HD
BRANCH  31  34
ATOM     34  C   UNL     1     -45.486  46.830  15.694  1.00  0.00     0.068 C 
ATOM     35  C   UNL     1     -45.617  48.020  15.091  1.00  0.00    -0.006 C 
BRANCH  35  36
ATOM     36  C   UNL     1     -46.851  48.433  14.347  1.00  0.00     0.111 C 
BRANCH  36  37
ATOM     37  N   UNL     1     -46.539  48.861  12.988  1.00  0.00    -0.306 NA
ATOM     38  C   UNL     1     -46.910  47.825  12.024  1.00  0.00     0.105 C 
ATOM     39  C   UNL     1     -45.117  49.186  12.864  1.00  0.00     0.105 C 
ENDBRANCH  36  37
ENDBRANCH  35  36
ENDBRANCH  31  34
ENDBRANCH   7  30
BRANCH   8  40
ATOM     40  O   UNL     1     -44.751  43.537  19.012  1.00  0.00    -0.492 OA
BRANCH  40  41
ATOM     41  C   UNL     1     -44.597  42.157  19.332  1.00  0.00     0.226 C 
ATOM     42  C   UNL     1     -44.782  41.336  18.073  1.00  0.00     0.049 C 
ENDBRANCH  40  41
ENDBRANCH   8  40
TORSDOF 11
ENDMDL
MODEL 16
REMARK VINA RESULT:    -7.778      4.487      9.275
REMARK INTER + INTRA:         -14.486
REMARK INTER:                 -12.815
REMARK INTRA:                  -1.671
REMARK UNBOUND:                -1.706
REMARK SMILES CCOc1cc2ncc(C#N)c(Nc3ccc(OCc4ccccn4)c(Cl)c3)c2cc1NC(=O)/C=C/CN(C)C
REMARK SMILES IDX 7 1 11 2 29 3 12 4 6 5 30 6 31 7 4 8 5 9 9 10 8 11 10 12
REMARK SMILES IDX 13 13 14 15 26 16 28 17 17 18 16 19 15 20 27 21 18 22 19 23
REMARK SMILES IDX 20 24 25 25 21 26 24 27 22 28 23 29 32 30 33 31 34 32 35 34
REMARK SMILES IDX 36 35 37 36 38 37 39 38 40 39 3 40 2 41 1 42
REMARK H PARENT 13 14 32 33
ROOT
ATOM      1  N   UNL     1     -41.653  50.976  12.972  1.00  0.00    -0.255 NA
ATOM      2  N   UNL     1     -37.961  49.403  15.614  1.00  0.00    -0.192 NA
ATOM      3  C   UNL     1     -42.552  49.014  14.044  1.00  0.00     0.027 A 
ATOM      4  C   UNL     1     -41.324  48.810  14.688  1.00  0.00     0.068 A 
ATOM      5  C   UNL     1     -42.675  50.124  13.183  1.00  0.00     0.076 A 
ATOM      6  C   UNL     1     -43.639  48.145  14.242  1.00  0.00     0.042 A 
ATOM      7  C   UNL     1     -44.848  48.370  13.589  1.00  0.00     0.084 A 
ATOM      8  C   UNL     1     -44.975  49.463  12.739  1.00  0.00     0.144 A 
ATOM      9  C   UNL     1     -43.894  50.326  12.544  1.00  0.00     0.077 A 
ATOM     10  C   UNL     1     -40.270  49.686  14.473  1.00  0.00     0.094 A 
ATOM     11  C   UNL     1     -40.485  50.745  13.614  1.00  0.00     0.133 A 
ATOM     12  C   UNL     1     -38.995  49.530  15.103  1.00  0.00     0.103 C 
ENDROOT
BRANCH   4  13
ATOM     13  N   UNL     1     -41.140  47.710  15.566  1.00  0.00    -0.354 N 
ATOM     14  H   UNL     1     -41.219  46.814  15.095  1.00  0.00     0.167 HD
BRANCH  13  15
ATOM     15  C   UNL     1     -40.867  47.635  16.940  1.00  0.00     0.040 A 
ATOM     16  C   UNL     1     -39.842  46.500  18.818  1.00  0.00     0.085 A 
ATOM     17  C   UNL     1     -40.113  46.574  17.452  1.00  0.00     0.050 A 
ATOM     18  C   UNL     1     -40.324  47.486  19.680  1.00  0.00     0.138 A 
ATOM     19  C   UNL     1     -41.078  48.545  19.175  1.00  0.00     0.050 A 
ATOM     20  C   UNL     1     -41.349  48.619  17.809  1.00  0.00     0.030 A 
ATOM     21  Cl  UNL     1     -38.907  45.179  19.416  1.00  0.00    -0.080 Cl
BRANCH  18  22
ATOM     22  O   UNL     1     -40.074  47.438  21.020  1.00  0.00    -0.486 OA
BRANCH  22  23
ATOM     23  C   UNL     1     -38.931  48.150  21.489  1.00  0.00     0.285 C 
BRANCH  23  24
ATOM     24  C   UNL     1     -37.862  47.165  21.861  1.00  0.00     0.078 A 
ATOM     25  N   UNL     1     -36.634  47.394  21.351  1.00  0.00    -0.258 NA
ATOM     26  C   UNL     1     -38.183  46.105  22.686  1.00  0.00     0.027 A 
ATOM     27  C   UNL     1     -35.675  46.504  21.689  1.00  0.00     0.111 A 
ATOM     28  C   UNL     1     -37.170  45.211  23.012  1.00  0.00     0.004 A 
ATOM     29  C   UNL     1     -35.889  45.408  22.508  1.00  0.00     0.020 A 
ENDBRANCH  23  24
ENDBRANCH  22  23
ENDBRANCH  18  22
ENDBRANCH  13  15
ENDBRANCH   4  13
BRANCH   7  30
ATOM     30  N   UNL     1     -45.917  47.496  13.796  1.00  0.00    -0.319 N 
ATOM     31  C   UNL     1     -46.773  47.428  14.903  1.00  0.00     0.248 C 
ATOM     32  O   UNL     1     -46.741  48.131  15.907  1.00  0.00    -0.270 OA
ATOM     33  H   UNL     1     -46.077  46.835  13.038  1.00  0.00     0.170 HD
BRANCH  31  34
ATOM     34  C   UNL     1     -47.795  46.351  14.743  1.00  0.00     0.068 C 
ATOM     35  C   UNL     1     -48.578  46.311  13.656  1.00  0.00    -0.006 C 
BRANCH  35  36
ATOM     36  C   UNL     1     -49.615  45.253  13.429  1.00  0.00     0.111 C 
BRANCH  36  37
ATOM     37  N   UNL     1     -49.573  44.746  12.061  1.00  0.00    -0.306 NA
ATOM     38  C   UNL     1     -48.285  44.107  11.789  1.00  0.00     0.105 C 
ATOM     39  C   UNL     1     -49.817  45.826  11.104  1.00  0.00     0.105 C 
ENDBRANCH  36  37
ENDBRANCH  35  36
ENDBRANCH  31  34
ENDBRANCH   7  30
BRANCH   8  40
ATOM     40  O   UNL     1     -46.146  49.710  12.085  1.00  0.00    -0.492 OA
BRANCH  40  41
ATOM     41  C   UNL     1     -46.366  51.044  11.636  1.00  0.00     0.226 C 
ATOM     42  C   UNL     1     -47.278  51.013  10.428  1.00  0.00     0.049 C 
ENDBRANCH  40  41
ENDBRANCH   8  40
TORSDOF 11
ENDMDL
MODEL 17
REMARK VINA RESULT:    -7.715      4.649      8.255
REMARK INTER + INTRA:         -14.383
REMARK INTER:                 -12.500
REMARK INTRA:                  -1.883
REMARK UNBOUND:                -1.706
REMARK SMILES CCOc1cc2ncc(C#N)c(Nc3ccc(OCc4ccccn4)c(Cl)c3)c2cc1NC(=O)/C=C/CN(C)C
REMARK SMILES IDX 7 1 11 2 29 3 12 4 6 5 30 6 31 7 4 8 5 9 9 10 8 11 10 12
REMARK SMILES IDX 13 13 14 15 26 16 28 17 17 18 16 19 15 20 27 21 18 22 19 23
REMARK SMILES IDX 20 24 25 25 21 26 24 27 22 28 23 29 32 30 33 31 34 32 35 34
REMARK SMILES IDX 36 35 37 36 38 37 39 38 40 39 3 40 2 41 1 42
REMARK H PARENT 13 14 32 33
ROOT
ATOM      1  N   UNL     1     -42.833  49.819  12.510  1.00  0.00    -0.255 NA
ATOM      2  N   UNL     1     -38.651  51.004  14.557  1.00  0.00    -0.192 NA
ATOM      3  C   UNL     1     -43.157  49.181  14.811  1.00  0.00     0.027 A 
ATOM      4  C   UNL     1     -41.861  49.621  15.110  1.00  0.00     0.068 A 
ATOM      5  C   UNL     1     -43.609  49.300  13.480  1.00  0.00     0.076 A 
ATOM      6  C   UNL     1     -43.994  48.634  15.799  1.00  0.00     0.042 A 
ATOM      7  C   UNL     1     -45.277  48.203  15.476  1.00  0.00     0.084 A 
ATOM      8  C   UNL     1     -45.729  48.318  14.167  1.00  0.00     0.144 A 
ATOM      9  C   UNL     1     -44.897  48.862  13.185  1.00  0.00     0.077 A 
ATOM     10  C   UNL     1     -41.059  50.158  14.112  1.00  0.00     0.094 A 
ATOM     11  C   UNL     1     -41.589  50.234  12.840  1.00  0.00     0.133 A 
ATOM     12  C   UNL     1     -39.730  50.624  14.357  1.00  0.00     0.103 C 
ENDROOT
BRANCH   4  13
ATOM     13  N   UNL     1     -41.350  49.528  16.431  1.00  0.00    -0.354 N 
ATOM     14  H   UNL     1     -41.476  50.385  16.961  1.00  0.00     0.167 HD
BRANCH  13  15
ATOM     15  C   UNL     1     -40.720  48.488  17.128  1.00  0.00     0.040 A 
ATOM     16  C   UNL     1     -40.775  46.259  18.076  1.00  0.00     0.085 A 
ATOM     17  C   UNL     1     -41.403  47.293  17.382  1.00  0.00     0.050 A 
ATOM     18  C   UNL     1     -39.462  46.413  18.521  1.00  0.00     0.138 A 
ATOM     19  C   UNL     1     -38.776  47.602  18.272  1.00  0.00     0.050 A 
ATOM     20  C   UNL     1     -39.404  48.636  17.578  1.00  0.00     0.030 A 
ATOM     21  Cl  UNL     1     -41.646  44.799  18.370  1.00  0.00    -0.080 Cl
BRANCH  18  22
ATOM     22  O   UNL     1     -38.824  45.418  19.202  1.00  0.00    -0.486 OA
BRANCH  22  23
ATOM     23  C   UNL     1     -39.077  45.329  20.603  1.00  0.00     0.285 C 
BRANCH  23  24
ATOM     24  C   UNL     1     -37.851  45.767  21.348  1.00  0.00     0.078 A 
ATOM     25  N   UNL     1     -36.838  44.878  21.410  1.00  0.00    -0.258 NA
ATOM     26  C   UNL     1     -37.825  47.026  21.917  1.00  0.00     0.027 A 
ATOM     27  C   UNL     1     -35.737  45.278  22.083  1.00  0.00     0.111 A 
ATOM     28  C   UNL     1     -36.675  47.402  22.600  1.00  0.00     0.004 A 
ATOM     29  C   UNL     1     -35.606  46.517  22.689  1.00  0.00     0.020 A 
ENDBRANCH  23  24
ENDBRANCH  22  23
ENDBRANCH  18  22
ENDBRANCH  13  15
ENDBRANCH   4  13
BRANCH   7  30
ATOM     30  N   UNL     1     -46.094  47.662  16.471  1.00  0.00    -0.319 N 
ATOM     31  C   UNL     1     -46.067  46.364  16.997  1.00  0.00     0.248 C 
ATOM     32  O   UNL     1     -45.314  45.452  16.677  1.00  0.00    -0.270 OA
ATOM     33  H   UNL     1     -46.788  48.306  16.846  1.00  0.00     0.170 HD
BRANCH  31  34
ATOM     34  C   UNL     1     -47.108  46.176  18.051  1.00  0.00     0.068 C 
ATOM     35  C   UNL     1     -48.363  46.606  17.853  1.00  0.00    -0.006 C 
BRANCH  35  36
ATOM     36  C   UNL     1     -49.457  46.441  18.864  1.00  0.00     0.111 C 
BRANCH  36  37
ATOM     37  N   UNL     1     -50.049  47.724  19.227  1.00  0.00    -0.306 NA
ATOM     38  C   UNL     1     -49.840  48.706  18.163  1.00  0.00     0.105 C 
ATOM     39  C   UNL     1     -49.487  48.212  20.488  1.00  0.00     0.105 C 
ENDBRANCH  36  37
ENDBRANCH  35  36
ENDBRANCH  31  34
ENDBRANCH   7  30
BRANCH   8  40
ATOM     40  O   UNL     1     -46.980  47.904  13.818  1.00  0.00    -0.492 OA
BRANCH  40  41
ATOM     41  C   UNL     1     -47.074  46.929  12.782  1.00  0.00     0.226 C 
ATOM     42  C   UNL     1     -46.782  45.562  13.364  1.00  0.00     0.049 C 
ENDBRANCH  40  41
ENDBRANCH   8  40
TORSDOF 11
ENDMDL
MODEL 18
REMARK VINA RESULT:    -7.680      4.345      9.401
REMARK INTER + INTRA:         -14.325
REMARK INTER:                 -12.443
REMARK INTRA:                  -1.882
REMARK UNBOUND:                -1.706
REMARK SMILES CCOc1cc2ncc(C#N)c(Nc3ccc(OCc4ccccn4)c(Cl)c3)c2cc1NC(=O)/C=C/CN(C)C
REMARK SMILES IDX 7 1 11 2 29 3 12 4 6 5 30 6 31 7 4 8 5 9 9 10 8 11 10 12
REMARK SMILES IDX 13 13 14 15 26 16 28 17 17 18 16 19 15 20 27 21 18 22 19 23
REMARK SMILES IDX 20 24 25 25 21 26 24 27 22 28 23 29 32 30 33 31 34 32 35 34
REMARK SMILES IDX 36 35 37 36 38 37 39 38 40 39 3 40 2 41 1 42
REMARK H PARENT 13 14 32 33
ROOT
ATOM      1  N   UNL     1     -38.423  50.492  15.866  1.00  0.00    -0.255 NA
ATOM      2  N   UNL     1     -40.697  51.381  11.729  1.00  0.00    -0.192 NA
ATOM      3  C   UNL     1     -39.931  48.623  15.665  1.00  0.00     0.027 A 
ATOM      4  C   UNL     1     -40.406  49.145  14.455  1.00  0.00     0.068 A 
ATOM      5  C   UNL     1     -38.925  49.339  16.348  1.00  0.00     0.076 A 
ATOM      6  C   UNL     1     -40.432  47.422  16.196  1.00  0.00     0.042 A 
ATOM      7  C   UNL     1     -39.942  46.927  17.402  1.00  0.00     0.084 A 
ATOM      8  C   UNL     1     -38.951  47.627  18.079  1.00  0.00     0.144 A 
ATOM      9  C   UNL     1     -38.453  48.821  17.550  1.00  0.00     0.077 A 
ATOM     10  C   UNL     1     -39.890  50.333  13.956  1.00  0.00     0.094 A 
ATOM     11  C   UNL     1     -38.908  50.961  14.694  1.00  0.00     0.133 A 
ATOM     12  C   UNL     1     -40.336  50.912  12.727  1.00  0.00     0.103 C 
ENDROOT
BRANCH   4  13
ATOM     13  N   UNL     1     -41.417  48.470  13.722  1.00  0.00    -0.354 N 
ATOM     14  H   UNL     1     -41.040  47.814  13.045  1.00  0.00     0.167 HD
BRANCH  13  15
ATOM     15  C   UNL     1     -42.818  48.535  13.765  1.00  0.00     0.040 A 
ATOM     16  C   UNL     1     -44.910  49.373  12.877  1.00  0.00     0.085 A 
ATOM     17  C   UNL     1     -43.517  49.309  12.833  1.00  0.00     0.050 A 
ATOM     18  C   UNL     1     -45.611  48.664  13.853  1.00  0.00     0.138 A 
ATOM     19  C   UNL     1     -44.919  47.891  14.785  1.00  0.00     0.050 A 
ATOM     20  C   UNL     1     -43.526  47.827  14.742  1.00  0.00     0.030 A 
ATOM     21  Cl  UNL     1     -45.740  50.336  11.711  1.00  0.00    -0.080 Cl
BRANCH  18  22
ATOM     22  O   UNL     1     -46.972  48.708  13.918  1.00  0.00    -0.486 OA
BRANCH  22  23
ATOM     23  C   UNL     1     -47.659  47.458  13.940  1.00  0.00     0.285 C 
BRANCH  23  24
ATOM     24  C   UNL     1     -48.350  47.304  15.262  1.00  0.00     0.078 A 
ATOM     25  N   UNL     1     -48.548  46.040  15.690  1.00  0.00    -0.258 NA
ATOM     26  C   UNL     1     -48.737  48.436  15.954  1.00  0.00     0.027 A 
ATOM     27  C   UNL     1     -49.171  45.907  16.882  1.00  0.00     0.111 A 
ATOM     28  C   UNL     1     -49.375  48.259  17.176  1.00  0.00     0.004 A 
ATOM     29  C   UNL     1     -49.599  46.973  17.656  1.00  0.00     0.020 A 
ENDBRANCH  23  24
ENDBRANCH  22  23
ENDBRANCH  18  22
ENDBRANCH  13  15
ENDBRANCH   4  13
BRANCH   7  30
ATOM     30  N   UNL     1     -40.452  45.732  17.914  1.00  0.00    -0.319 N 
ATOM     31  C   UNL     1     -41.665  45.531  18.587  1.00  0.00     0.248 C 
ATOM     32  O   UNL     1     -42.511  46.376  18.854  1.00  0.00    -0.270 OA
ATOM     33  H   UNL     1     -39.855  44.920  17.771  1.00  0.00     0.170 HD
BRANCH  31  34
ATOM     34  C   UNL     1     -41.846  44.101  18.978  1.00  0.00     0.068 C 
ATOM     35  C   UNL     1     -42.126  43.772  20.247  1.00  0.00    -0.006 C 
BRANCH  35  36
ATOM     36  C   UNL     1     -42.329  42.360  20.704  1.00  0.00     0.111 C 
BRANCH  36  37
ATOM     37  N   UNL     1     -43.678  42.152  21.220  1.00  0.00    -0.306 NA
ATOM     38  C   UNL     1     -44.611  41.884  20.125  1.00  0.00     0.105 C 
ATOM     39  C   UNL     1     -44.119  43.314  21.991  1.00  0.00     0.105 C 
ENDBRANCH  36  37
ENDBRANCH  35  36
ENDBRANCH  31  34
ENDBRANCH   7  30
BRANCH   8  40
ATOM     40  O   UNL     1     -38.451  47.168  19.261  1.00  0.00    -0.492 OA
BRANCH  40  41
ATOM     41  C   UNL     1     -38.551  48.037  20.386  1.00  0.00     0.226 C 
ATOM     42  C   UNL     1     -39.976  48.018  20.899  1.00  0.00     0.049 C 
ENDBRANCH  40  41
ENDBRANCH   8  40
TORSDOF 11
ENDMDL
MODEL 19
REMARK VINA RESULT:    -7.624      3.753      8.375
REMARK INTER + INTRA:         -14.232
REMARK INTER:                 -12.087
REMARK INTRA:                  -2.145
REMARK UNBOUND:                -1.706
REMARK SMILES CCOc1cc2ncc(C#N)c(Nc3ccc(OCc4ccccn4)c(Cl)c3)c2cc1NC(=O)/C=C/CN(C)C
REMARK SMILES IDX 7 1 11 2 29 3 12 4 6 5 30 6 31 7 4 8 5 9 9 10 8 11 10 12
REMARK SMILES IDX 13 13 14 15 26 16 28 17 17 18 16 19 15 20 27 21 18 22 19 23
REMARK SMILES IDX 20 24 25 25 21 26 24 27 22 28 23 29 32 30 33 31 34 32 35 34
REMARK SMILES IDX 36 35 37 36 38 37 39 38 40 39 3 40 2 41 1 42
REMARK H PARENT 13 14 32 33
ROOT
ATOM      1  N   UNL     1     -40.222  50.927  14.068  1.00  0.00    -0.255 NA
ATOM      2  N   UNL     1     -35.665  50.449  15.513  1.00  0.00    -0.192 NA
ATOM      3  C   UNL     1     -40.304  48.976  15.480  1.00  0.00     0.027 A 
ATOM      4  C   UNL     1     -38.929  49.098  15.719  1.00  0.00     0.068 A 
ATOM      5  C   UNL     1     -40.919  49.925  14.637  1.00  0.00     0.076 A 
ATOM      6  C   UNL     1     -41.062  47.943  16.058  1.00  0.00     0.042 A 
ATOM      7  C   UNL     1     -42.427  47.844  15.803  1.00  0.00     0.084 A 
ATOM      8  C   UNL     1     -43.039  48.776  14.974  1.00  0.00     0.144 A 
ATOM      9  C   UNL     1     -42.285  49.803  14.400  1.00  0.00     0.077 A 
ATOM     10  C   UNL     1     -38.208  50.131  15.135  1.00  0.00     0.094 A 
ATOM     11  C   UNL     1     -38.897  51.011  14.325  1.00  0.00     0.133 A 
ATOM     12  C   UNL     1     -36.804  50.306  15.343  1.00  0.00     0.103 C 
ENDROOT
BRANCH   4  13
ATOM     13  N   UNL     1     -38.254  48.174  16.559  1.00  0.00    -0.354 N 
ATOM     14  H   UNL     1     -37.464  47.731  16.100  1.00  0.00     0.167 HD
BRANCH  13  15
ATOM     15  C   UNL     1     -38.469  47.773  17.886  1.00  0.00     0.040 A 
ATOM     16  C   UNL     1     -38.932  48.323  20.198  1.00  0.00     0.085 A 
ATOM     17  C   UNL     1     -38.718  48.724  18.880  1.00  0.00     0.050 A 
ATOM     18  C   UNL     1     -38.898  46.969  20.531  1.00  0.00     0.138 A 
ATOM     19  C   UNL     1     -38.649  46.015  19.544  1.00  0.00     0.050 A 
ATOM     20  C   UNL     1     -38.435  46.416  18.225  1.00  0.00     0.030 A 
ATOM     21  Cl  UNL     1     -39.238  49.524  21.399  1.00  0.00    -0.080 Cl
BRANCH  18  22
ATOM     22  O   UNL     1     -39.103  46.549  21.812  1.00  0.00    -0.486 OA
BRANCH  22  23
ATOM     23  C   UNL     1     -39.662  45.248  21.983  1.00  0.00     0.285 C 
BRANCH  23  24
ATOM     24  C   UNL     1     -41.131  45.379  22.257  1.00  0.00     0.078 A 
ATOM     25  N   UNL     1     -41.749  44.285  22.747  1.00  0.00    -0.258 NA
ATOM     26  C   UNL     1     -41.757  46.584  21.999  1.00  0.00     0.027 A 
ATOM     27  C   UNL     1     -43.072  44.409  22.992  1.00  0.00     0.111 A 
ATOM     28  C   UNL     1     -43.119  46.673  22.264  1.00  0.00     0.004 A 
ATOM     29  C   UNL     1     -43.796  45.569  22.770  1.00  0.00     0.020 A 
ENDBRANCH  23  24
ENDBRANCH  22  23
ENDBRANCH  18  22
ENDBRANCH  13  15
ENDBRANCH   4  13
BRANCH   7  30
ATOM     30  N   UNL     1     -43.164  46.810  16.385  1.00  0.00    -0.319 N 
ATOM     31  C   UNL     1     -43.644  46.726  17.699  1.00  0.00     0.248 C 
ATOM     32  O   UNL     1     -43.502  47.554  18.591  1.00  0.00    -0.270 OA
ATOM     33  H   UNL     1     -43.367  46.032  15.761  1.00  0.00     0.170 HD
BRANCH  31  34
ATOM     34  C   UNL     1     -44.390  45.454  17.932  1.00  0.00     0.068 C 
ATOM     35  C   UNL     1     -43.971  44.579  18.858  1.00  0.00    -0.006 C 
BRANCH  35  36
ATOM     36  C   UNL     1     -44.678  43.290  19.148  1.00  0.00     0.111 C 
BRANCH  36  37
ATOM     37  N   UNL     1     -45.339  43.322  20.448  1.00  0.00    -0.306 NA
ATOM     38  C   UNL     1     -45.463  41.971  20.995  1.00  0.00     0.105 C 
ATOM     39  C   UNL     1     -46.657  43.950  20.340  1.00  0.00     0.105 C 
ENDBRANCH  36  37
ENDBRANCH  35  36
ENDBRANCH  31  34
ENDBRANCH   7  30
BRANCH   8  40
ATOM     40  O   UNL     1     -44.374  48.705  14.704  1.00  0.00    -0.492 OA
BRANCH  40  41
ATOM     41  C   UNL     1     -44.794  49.113  13.405  1.00  0.00     0.226 C 
ATOM     42  C   UNL     1     -46.175  48.554  13.135  1.00  0.00     0.049 C 
ENDBRANCH  40  41
ENDBRANCH   8  40
TORSDOF 11
ENDMDL
MODEL 20
REMARK VINA RESULT:    -7.597      3.125      8.457
REMARK INTER + INTRA:         -14.188
REMARK INTER:                 -12.527
REMARK INTRA:                  -1.661
REMARK UNBOUND:                -1.706
REMARK SMILES CCOc1cc2ncc(C#N)c(Nc3ccc(OCc4ccccn4)c(Cl)c3)c2cc1NC(=O)/C=C/CN(C)C
REMARK SMILES IDX 7 1 11 2 29 3 12 4 6 5 30 6 31 7 4 8 5 9 9 10 8 11 10 12
REMARK SMILES IDX 13 13 14 15 26 16 28 17 17 18 16 19 15 20 27 21 18 22 19 23
REMARK SMILES IDX 20 24 25 25 21 26 24 27 22 28 23 29 32 30 33 31 34 32 35 34
REMARK SMILES IDX 36 35 37 36 38 37 39 38 40 39 3 40 2 41 1 42
REMARK H PARENT 13 14 32 33
ROOT
ATOM      1  N   UNL     1     -40.726  51.109  13.619  1.00  0.00    -0.255 NA
ATOM      2  N   UNL     1     -44.948  49.181  12.378  1.00  0.00    -0.192 NA
ATOM      3  C   UNL     1     -40.832  49.120  14.973  1.00  0.00     0.027 A 
ATOM      4  C   UNL     1     -42.081  48.814  14.418  1.00  0.00     0.068 A 
ATOM      5  C   UNL     1     -40.180  50.293  14.540  1.00  0.00     0.076 A 
ATOM      6  C   UNL     1     -40.232  48.290  15.936  1.00  0.00     0.042 A 
ATOM      7  C   UNL     1     -38.990  48.617  16.473  1.00  0.00     0.084 A 
ATOM      8  C   UNL     1     -38.342  49.771  16.049  1.00  0.00     0.144 A 
ATOM      9  C   UNL     1     -38.939  50.596  15.092  1.00  0.00     0.077 A 
ATOM     10  C   UNL     1     -42.646  49.654  13.468  1.00  0.00     0.094 A 
ATOM     11  C   UNL     1     -41.934  50.779  13.106  1.00  0.00     0.133 A 
ATOM     12  C   UNL     1     -43.917  49.393  12.866  1.00  0.00     0.103 C 
ENDROOT
BRANCH   4  13
ATOM     13  N   UNL     1     -42.785  47.647  14.815  1.00  0.00    -0.354 N 
ATOM     14  H   UNL     1     -42.796  46.932  14.094  1.00  0.00     0.167 HD
BRANCH  13  15
ATOM     15  C   UNL     1     -43.451  47.303  16.000  1.00  0.00     0.040 A 
ATOM     16  C   UNL     1     -43.453  47.041  18.408  1.00  0.00     0.085 A 
ATOM     17  C   UNL     1     -42.790  47.384  17.230  1.00  0.00     0.050 A 
ATOM     18  C   UNL     1     -44.781  46.615  18.363  1.00  0.00     0.138 A 
ATOM     19  C   UNL     1     -45.445  46.531  17.139  1.00  0.00     0.050 A 
ATOM     20  C   UNL     1     -44.782  46.874  15.961  1.00  0.00     0.030 A 
ATOM     21  Cl  UNL     1     -42.608  47.154  19.908  1.00  0.00    -0.080 Cl
BRANCH  18  22
ATOM     22  O   UNL     1     -45.453  46.274  19.499  1.00  0.00    -0.486 OA
BRANCH  22  23
ATOM     23  C   UNL     1     -45.828  44.905  19.642  1.00  0.00     0.285 C 
BRANCH  23  24
ATOM     24  C   UNL     1     -44.612  44.099  19.990  1.00  0.00     0.078 A 
ATOM     25  N   UNL     1     -44.101  44.289  21.224  1.00  0.00    -0.258 NA
ATOM     26  C   UNL     1     -44.094  43.227  19.053  1.00  0.00     0.027 A 
ATOM     27  C   UNL     1     -43.006  43.560  21.532  1.00  0.00     0.111 A 
ATOM     28  C   UNL     1     -42.967  42.493  19.406  1.00  0.00     0.004 A 
ATOM     29  C   UNL     1     -42.407  42.658  20.669  1.00  0.00     0.020 A 
ENDBRANCH  23  24
ENDBRANCH  22  23
ENDBRANCH  18  22
ENDBRANCH  13  15
ENDBRANCH   4  13
BRANCH   7  30
ATOM     30  N   UNL     1     -38.410  47.780  17.429  1.00  0.00    -0.319 N 
ATOM     31  C   UNL     1     -38.667  47.736  18.806  1.00  0.00     0.248 C 
ATOM     32  O   UNL     1     -39.456  48.433  19.433  1.00  0.00    -0.270 OA
ATOM     33  H   UNL     1     -37.718  47.131  17.060  1.00  0.00     0.170 HD
BRANCH  31  34
ATOM     34  C   UNL     1     -37.837  46.699  19.487  1.00  0.00     0.068 C 
ATOM     35  C   UNL     1     -37.938  46.507  20.810  1.00  0.00    -0.006 C 
BRANCH  35  36
ATOM     36  C   UNL     1     -37.142  45.477  21.554  1.00  0.00     0.111 C 
BRANCH  36  37
ATOM     37  N   UNL     1     -36.174  46.095  22.454  1.00  0.00    -0.306 NA
ATOM     38  C   UNL     1     -36.665  47.390  22.925  1.00  0.00     0.105 C 
ATOM     39  C   UNL     1     -34.880  46.253  21.789  1.00  0.00     0.105 C 
ENDBRANCH  36  37
ENDBRANCH  35  36
ENDBRANCH  31  34
ENDBRANCH   7  30
BRANCH   8  40
ATOM     40  O   UNL     1     -37.126  50.119  16.556  1.00  0.00    -0.492 OA
BRANCH  40  41
ATOM     41  C   UNL     1     -36.739  51.485  16.431  1.00  0.00     0.226 C 
ATOM     42  C   UNL     1     -35.279  51.550  16.036  1.00  0.00     0.049 C 
ENDBRANCH  40  41
ENDBRANCH   8  40
TORSDOF 11
ENDMDL
