MODEL 1
REMARK VINA RESULT:    -7.378      0.000      0.000
REMARK INTER + INTRA:         -10.870
REMARK INTER:                  -9.750
REMARK INTRA:                  -1.121
REMARK UNBOUND:                -1.121
REMARK SMILES CCCNC(=O)c1nnc2c(-c3c(F)cccc3OC)cccc2c1N
REMARK SMILES IDX 7 1 8 2 9 3 10 4 24 5 25 6 23 7 22 8 21 9 11 10 5 11 4 12
REMARK SMILES IDX 6 13 3 15 2 16 1 17 26 18 12 21 18 22 13 23 17 24 15 25
REMARK SMILES IDX 16 26 14 27 19 28 20 29
REMARK H PARENT 4 14 26 19 26 20
ROOT
ATOM      1  C   UNL     1     142.757  97.160 138.126  1.00  0.00     0.174 A 
ATOM      2  N   UNL     1     141.551  97.645 137.755  1.00  0.00    -0.142 NA
ATOM      3  N   UNL     1     141.237  97.713 136.427  1.00  0.00    -0.149 NA
ATOM      4  C   UNL     1     142.111  97.337 135.470  1.00  0.00     0.103 A 
ATOM      5  C   UNL     1     143.385  96.837 135.827  1.00  0.00     0.028 A 
ATOM      6  C   UNL     1     143.706  96.703 137.205  1.00  0.00     0.075 A 
ATOM      7  C   UNL     1     144.293  96.497 134.794  1.00  0.00     0.013 A 
ATOM      8  C   UNL     1     143.950  96.618 133.452  1.00  0.00     0.002 A 
ATOM      9  C   UNL     1     142.691  97.087 133.110  1.00  0.00     0.011 A 
ATOM     10  C   UNL     1     141.769  97.449 134.108  1.00  0.00     0.017 A 
ENDROOT
BRANCH   1  11
ATOM     11  C   UNL     1     142.975  97.098 139.609  1.00  0.00     0.273 C 
ATOM     12  N   UNL     1     142.013  96.399 140.313  1.00  0.00    -0.351 N 
ATOM     13  O   UNL     1     143.950  97.624 140.138  1.00  0.00    -0.267 OA
ATOM     14  H   UNL     1     141.245  95.999 139.781  1.00  0.00     0.163 HD
BRANCH  12  15
ATOM     15  C   UNL     1     142.033  96.251 141.752  1.00  0.00     0.116 C 
BRANCH  15  16
ATOM     16  C   UNL     1     141.182  97.305 142.456  1.00  0.00     0.018 C 
ATOM     17  C   UNL     1     141.945  98.072 143.526  1.00  0.00     0.006 C 
ENDBRANCH  15  16
ENDBRANCH  12  15
ENDBRANCH   1  11
BRANCH   6  18
ATOM     18  N   UNL     1     145.005  96.290 137.605  1.00  0.00    -0.396 N 
ATOM     19  H   UNL     1     145.262  96.677 138.524  1.00  0.00     0.156 HD
ATOM     20  H   UNL     1     145.145  95.285 137.580  1.00  0.00     0.156 HD
ENDBRANCH   6  18
BRANCH  10  21
ATOM     21  C   UNL     1     140.444  97.952 133.701  1.00  0.00     0.062 A 
ATOM     22  C   UNL     1     139.371  97.080 133.415  1.00  0.00     0.129 A 
ATOM     23  C   UNL     1     140.230  99.333 133.578  1.00  0.00     0.134 A 
ATOM     24  C   UNL     1     138.130  97.605 133.027  1.00  0.00     0.047 A 
ATOM     25  C   UNL     1     138.999  99.851 133.186  1.00  0.00     0.040 A 
ATOM     26  C   UNL     1     137.947  98.986 132.911  1.00  0.00     0.007 A 
ATOM     27  F   UNL     1     141.223 100.194 133.849  1.00  0.00    -0.206 F 
BRANCH  22  28
ATOM     28  O   UNL     1     139.629  95.739 133.561  1.00  0.00    -0.496 OA
ATOM     29  C   UNL     1     139.633  94.944 132.383  1.00  0.00     0.278 C 
ENDBRANCH  22  28
ENDBRANCH  10  21
TORSDOF 6
ENDMDL
MODEL 2
REMARK VINA RESULT:    -7.125      1.643      2.225
REMARK INTER + INTRA:         -10.537
REMARK INTER:                  -9.402
REMARK INTRA:                  -1.134
REMARK UNBOUND:                -1.121
REMARK SMILES CCCNC(=O)c1nnc2c(-c3c(F)cccc3OC)cccc2c1N
REMARK SMILES IDX 7 1 8 2 9 3 10 4 24 5 25 6 23 7 22 8 21 9 11 10 5 11 4 12
REMARK SMILES IDX 6 13 3 15 2 16 1 17 26 18 12 21 18 22 13 23 17 24 15 25
REMARK SMILES IDX 16 26 14 27 19 28 20 29
REMARK H PARENT 4 14 26 19 26 20
ROOT
ATOM      1  C   UNL     1     142.867  96.699 137.746  1.00  0.00     0.174 A 
ATOM      2  N   UNL     1     141.622  96.960 137.288  1.00  0.00    -0.142 NA
ATOM      3  N   UNL     1     141.356  96.820 135.956  1.00  0.00    -0.149 NA
ATOM      4  C   UNL     1     142.312  96.457 135.075  1.00  0.00     0.103 A 
ATOM      5  C   UNL     1     143.627  96.189 135.522  1.00  0.00     0.028 A 
ATOM      6  C   UNL     1     143.906  96.271 136.912  1.00  0.00     0.075 A 
ATOM      7  C   UNL     1     144.615  95.858 134.561  1.00  0.00     0.013 A 
ATOM      8  C   UNL     1     144.313  95.765 133.207  1.00  0.00     0.002 A 
ATOM      9  C   UNL     1     143.017  96.006 132.780  1.00  0.00     0.011 A 
ATOM     10  C   UNL     1     142.014  96.353 133.702  1.00  0.00     0.017 A 
ENDROOT
BRANCH   1  11
ATOM     11  C   UNL     1     143.031  96.849 139.229  1.00  0.00     0.273 C 
ATOM     12  N   UNL     1     142.205  96.047 139.995  1.00  0.00    -0.351 N 
ATOM     13  O   UNL     1     143.853  97.625 139.711  1.00  0.00    -0.267 OA
ATOM     14  H   UNL     1     141.560  95.438 139.499  1.00  0.00     0.163 HD
BRANCH  12  15
ATOM     15  C   UNL     1     142.195  96.068 141.441  1.00  0.00     0.116 C 
BRANCH  15  16
ATOM     16  C   UNL     1     141.045  96.901 142.001  1.00  0.00     0.018 C 
ATOM     17  C   UNL     1     141.429  97.689 143.246  1.00  0.00     0.006 C 
ENDBRANCH  15  16
ENDBRANCH  12  15
ENDBRANCH   1  11
BRANCH   6  18
ATOM     18  N   UNL     1     145.233  96.098 137.392  1.00  0.00    -0.396 N 
ATOM     19  H   UNL     1     145.852  96.861 137.084  1.00  0.00     0.156 HD
ATOM     20  H   UNL     1     145.295  95.961 138.396  1.00  0.00     0.156 HD
ENDBRANCH   6  18
BRANCH  10  21
ATOM     21  C   UNL     1     140.649  96.611 133.204  1.00  0.00     0.062 A 
ATOM     22  C   UNL     1     140.234  97.897 132.799  1.00  0.00     0.129 A 
ATOM     23  C   UNL     1     139.722  95.560 133.137  1.00  0.00     0.134 A 
ATOM     24  C   UNL     1     138.924  98.095 132.336  1.00  0.00     0.047 A 
ATOM     25  C   UNL     1     138.421  95.760 132.684  1.00  0.00     0.040 A 
ATOM     26  C   UNL     1     138.022  97.028 132.282  1.00  0.00     0.007 A 
ATOM     27  F   UNL     1     140.082  94.321 133.506  1.00  0.00    -0.206 F 
BRANCH  22  28
ATOM     28  O   UNL     1     141.182  98.888 132.874  1.00  0.00    -0.496 OA
ATOM     29  C   UNL     1     141.020  99.871 133.888  1.00  0.00     0.278 C 
ENDBRANCH  22  28
ENDBRANCH  10  21
TORSDOF 6
ENDMDL
MODEL 3
REMARK VINA RESULT:    -6.912      1.898      3.579
REMARK INTER + INTRA:         -10.255
REMARK INTER:                  -9.354
REMARK INTRA:                  -0.901
REMARK UNBOUND:                -1.121
REMARK SMILES CCCNC(=O)c1nnc2c(-c3c(F)cccc3OC)cccc2c1N
REMARK SMILES IDX 7 1 8 2 9 3 10 4 24 5 25 6 23 7 22 8 21 9 11 10 5 11 4 12
REMARK SMILES IDX 6 13 3 15 2 16 1 17 26 18 12 21 18 22 13 23 17 24 15 25
REMARK SMILES IDX 16 26 14 27 19 28 20 29
REMARK H PARENT 4 14 26 19 26 20
ROOT
ATOM      1  C   UNL     1     142.186  96.849 138.695  1.00  0.00     0.174 A 
ATOM      2  N   UNL     1     143.173  96.487 137.845  1.00  0.00    -0.142 NA
ATOM      3  N   UNL     1     143.083  96.837 136.528  1.00  0.00    -0.149 NA
ATOM      4  C   UNL     1     142.018  97.509 136.042  1.00  0.00     0.103 A 
ATOM      5  C   UNL     1     140.963  97.890 136.905  1.00  0.00     0.028 A 
ATOM      6  C   UNL     1     141.069  97.588 138.289  1.00  0.00     0.075 A 
ATOM      7  C   UNL     1     139.840  98.552 136.350  1.00  0.00     0.013 A 
ATOM      8  C   UNL     1     139.768  98.855 134.995  1.00  0.00     0.002 A 
ATOM      9  C   UNL     1     140.815  98.499 134.160  1.00  0.00     0.011 A 
ATOM     10  C   UNL     1     141.939  97.826 134.672  1.00  0.00     0.017 A 
ENDROOT
BRANCH   1  11
ATOM     11  C   UNL     1     142.412  96.444 140.122  1.00  0.00     0.273 C 
ATOM     12  N   UNL     1     142.899  97.443 140.944  1.00  0.00    -0.351 N 
ATOM     13  O   UNL     1     142.164  95.307 140.515  1.00  0.00    -0.267 OA
ATOM     14  H   UNL     1     143.069  98.352 140.521  1.00  0.00     0.163 HD
BRANCH  12  15
ATOM     15  C   UNL     1     143.205  97.241 142.343  1.00  0.00     0.116 C 
BRANCH  15  16
ATOM     16  C   UNL     1     142.255  98.007 143.262  1.00  0.00     0.018 C 
ATOM     17  C   UNL     1     142.941  99.124 144.034  1.00  0.00     0.006 C 
ENDBRANCH  15  16
ENDBRANCH  12  15
ENDBRANCH   1  11
BRANCH   6  18
ATOM     18  N   UNL     1     139.993  97.873 139.173  1.00  0.00    -0.396 N 
ATOM     19  H   UNL     1     139.457  98.697 138.868  1.00  0.00     0.156 HD
ATOM     20  H   UNL     1     139.381  97.082 139.346  1.00  0.00     0.156 HD
ENDBRANCH   6  18
BRANCH  10  21
ATOM     21  C   UNL     1     143.028  97.457 133.748  1.00  0.00     0.062 A 
ATOM     22  C   UNL     1     143.007  96.251 133.015  1.00  0.00     0.129 A 
ATOM     23  C   UNL     1     144.129  98.312 133.590  1.00  0.00     0.134 A 
ATOM     24  C   UNL     1     144.067  95.940 132.151  1.00  0.00     0.047 A 
ATOM     25  C   UNL     1     145.183  97.998 132.737  1.00  0.00     0.040 A 
ATOM     26  C   UNL     1     145.152  96.812 132.016  1.00  0.00     0.007 A 
ATOM     27  F   UNL     1     144.182  99.471 134.264  1.00  0.00    -0.206 F 
BRANCH  22  28
ATOM     28  O   UNL     1     141.903  95.454 133.196  1.00  0.00    -0.496 OA
ATOM     29  C   UNL     1     142.105  94.188 133.809  1.00  0.00     0.278 C 
ENDBRANCH  22  28
ENDBRANCH  10  21
TORSDOF 6
ENDMDL
MODEL 4
REMARK VINA RESULT:    -6.790      2.534      4.455
REMARK INTER + INTRA:         -10.095
REMARK INTER:                  -9.157
REMARK INTRA:                  -0.937
REMARK UNBOUND:                -1.121
REMARK SMILES CCCNC(=O)c1nnc2c(-c3c(F)cccc3OC)cccc2c1N
REMARK SMILES IDX 7 1 8 2 9 3 10 4 24 5 25 6 23 7 22 8 21 9 11 10 5 11 4 12
REMARK SMILES IDX 6 13 3 15 2 16 1 17 26 18 12 21 18 22 13 23 17 24 15 25
REMARK SMILES IDX 16 26 14 27 19 28 20 29
REMARK H PARENT 4 14 26 19 26 20
ROOT
ATOM      1  C   UNL     1     142.162  96.776 139.264  1.00  0.00     0.174 A 
ATOM      2  N   UNL     1     143.211  96.217 138.621  1.00  0.00    -0.142 NA
ATOM      3  N   UNL     1     143.238  96.222 137.255  1.00  0.00    -0.149 NA
ATOM      4  C   UNL     1     142.229  96.745 136.526  1.00  0.00     0.103 A 
ATOM      5  C   UNL     1     141.112  97.325 137.171  1.00  0.00     0.028 A 
ATOM      6  C   UNL     1     141.095  97.383 138.590  1.00  0.00     0.075 A 
ATOM      7  C   UNL     1     140.050  97.819 136.373  1.00  0.00     0.013 A 
ATOM      8  C   UNL     1     140.098  97.770 134.984  1.00  0.00     0.002 A 
ATOM      9  C   UNL     1     141.206  97.220 134.359  1.00  0.00     0.011 A 
ATOM     10  C   UNL     1     142.271  96.705 135.119  1.00  0.00     0.017 A 
ENDROOT
BRANCH   1  11
ATOM     11  C   UNL     1     142.259  96.747 140.760  1.00  0.00     0.273 C 
ATOM     12  N   UNL     1     143.301  97.480 141.295  1.00  0.00    -0.351 N 
ATOM     13  O   UNL     1     141.454  96.120 141.445  1.00  0.00    -0.267 OA
ATOM     14  H   UNL     1     143.911  97.965 140.641  1.00  0.00     0.163 HD
BRANCH  12  15
ATOM     15  C   UNL     1     143.577  97.554 142.713  1.00  0.00     0.116 C 
BRANCH  15  16
ATOM     16  C   UNL     1     142.600  98.469 143.447  1.00  0.00     0.018 C 
ATOM     17  C   UNL     1     143.291  99.466 144.367  1.00  0.00     0.006 C 
ENDBRANCH  15  16
ENDBRANCH  12  15
ENDBRANCH   1  11
BRANCH   6  18
ATOM     18  N   UNL     1     139.953  97.876 139.278  1.00  0.00    -0.396 N 
ATOM     19  H   UNL     1     139.212  98.167 138.626  1.00  0.00     0.156 HD
ATOM     20  H   UNL     1     139.591  97.243 139.983  1.00  0.00     0.156 HD
ENDBRANCH   6  18
BRANCH  10  21
ATOM     21  C   UNL     1     143.428  96.120 134.414  1.00  0.00     0.062 A 
ATOM     22  C   UNL     1     144.547  96.898 134.045  1.00  0.00     0.129 A 
ATOM     23  C   UNL     1     143.426  94.757 134.083  1.00  0.00     0.134 A 
ATOM     24  C   UNL     1     145.622  96.298 133.371  1.00  0.00     0.047 A 
ATOM     25  C   UNL     1     144.491  94.166 133.409  1.00  0.00     0.040 A 
ATOM     26  C   UNL     1     145.591  94.937 133.054  1.00  0.00     0.007 A 
ATOM     27  F   UNL     1     142.384  93.984 134.424  1.00  0.00    -0.206 F 
BRANCH  22  28
ATOM     28  O   UNL     1     144.504  98.223 134.401  1.00  0.00    -0.496 OA
ATOM     29  C   UNL     1     144.148  99.159 133.393  1.00  0.00     0.278 C 
ENDBRANCH  22  28
ENDBRANCH  10  21
TORSDOF 6
ENDMDL
MODEL 5
REMARK VINA RESULT:    -6.659      2.236      3.904
REMARK INTER + INTRA:          -9.921
REMARK INTER:                  -9.322
REMARK INTRA:                  -0.599
REMARK UNBOUND:                -1.121
REMARK SMILES CCCNC(=O)c1nnc2c(-c3c(F)cccc3OC)cccc2c1N
REMARK SMILES IDX 7 1 8 2 9 3 10 4 24 5 25 6 23 7 22 8 21 9 11 10 5 11 4 12
REMARK SMILES IDX 6 13 3 15 2 16 1 17 26 18 12 21 18 22 13 23 17 24 15 25
REMARK SMILES IDX 16 26 14 27 19 28 20 29
REMARK H PARENT 4 14 26 19 26 20
ROOT
ATOM      1  C   UNL     1     142.003  96.956 137.441  1.00  0.00     0.174 A 
ATOM      2  N   UNL     1     142.737  96.296 136.518  1.00  0.00    -0.142 NA
ATOM      3  N   UNL     1     142.315  96.272 135.219  1.00  0.00    -0.149 NA
ATOM      4  C   UNL     1     141.166  96.866 134.835  1.00  0.00     0.103 A 
ATOM      5  C   UNL     1     140.369  97.554 135.780  1.00  0.00     0.028 A 
ATOM      6  C   UNL     1     140.824  97.640 137.123  1.00  0.00     0.075 A 
ATOM      7  C   UNL     1     139.145  98.122 135.348  1.00  0.00     0.013 A 
ATOM      8  C   UNL     1     138.731  98.042 134.024  1.00  0.00     0.002 A 
ATOM      9  C   UNL     1     139.528  97.386 133.099  1.00  0.00     0.011 A 
ATOM     10  C   UNL     1     140.741  96.795 133.494  1.00  0.00     0.017 A 
ENDROOT
BRANCH   1  11
ATOM     11  C   UNL     1     142.583  96.947 138.824  1.00  0.00     0.273 C 
ATOM     12  N   UNL     1     141.773  96.390 139.796  1.00  0.00    -0.351 N 
ATOM     13  O   UNL     1     143.703  97.396 139.055  1.00  0.00    -0.267 OA
ATOM     14  H   UNL     1     140.863  96.045 139.501  1.00  0.00     0.163 HD
BRANCH  12  15
ATOM     15  C   UNL     1     142.144  96.315 141.192  1.00  0.00     0.116 C 
BRANCH  15  16
ATOM     16  C   UNL     1     141.033  96.812 142.115  1.00  0.00     0.018 C 
ATOM     17  C   UNL     1     141.548  97.675 143.258  1.00  0.00     0.006 C 
ENDBRANCH  15  16
ENDBRANCH  12  15
ENDBRANCH   1  11
BRANCH   6  18
ATOM     18  N   UNL     1     140.011  98.243 138.121  1.00  0.00    -0.396 N 
ATOM     19  H   UNL     1     139.259  97.613 138.433  1.00  0.00     0.156 HD
ATOM     20  H   UNL     1     140.532  98.610 138.911  1.00  0.00     0.156 HD
ENDBRANCH   6  18
BRANCH  10  21
ATOM     21  C   UNL     1     141.555  96.099 132.479  1.00  0.00     0.062 A 
ATOM     22  C   UNL     1     142.437  96.795 131.624  1.00  0.00     0.129 A 
ATOM     23  C   UNL     1     141.452  94.707 132.339  1.00  0.00     0.134 A 
ATOM     24  C   UNL     1     143.187  96.090 130.672  1.00  0.00     0.047 A 
ATOM     25  C   UNL     1     142.193  94.010 131.388  1.00  0.00     0.040 A 
ATOM     26  C   UNL     1     143.062  94.703 130.554  1.00  0.00     0.007 A 
ATOM     27  F   UNL     1     140.631  94.009 133.138  1.00  0.00    -0.206 F 
BRANCH  22  28
ATOM     28  O   UNL     1     142.508  98.154 131.809  1.00  0.00    -0.496 OA
ATOM     29  C   UNL     1     143.764  98.694 132.198  1.00  0.00     0.278 C 
ENDBRANCH  22  28
ENDBRANCH  10  21
TORSDOF 6
ENDMDL
MODEL 6
REMARK VINA RESULT:    -6.643      2.953      4.940
REMARK INTER + INTRA:          -9.900
REMARK INTER:                  -8.844
REMARK INTRA:                  -1.056
REMARK UNBOUND:                -1.121
REMARK SMILES CCCNC(=O)c1nnc2c(-c3c(F)cccc3OC)cccc2c1N
REMARK SMILES IDX 7 1 8 2 9 3 10 4 24 5 25 6 23 7 22 8 21 9 11 10 5 11 4 12
REMARK SMILES IDX 6 13 3 15 2 16 1 17 26 18 12 21 18 22 13 23 17 24 15 25
REMARK SMILES IDX 16 26 14 27 19 28 20 29
REMARK H PARENT 4 14 26 19 26 20
ROOT
ATOM      1  C   UNL     1     143.927  95.780 135.678  1.00  0.00     0.174 A 
ATOM      2  N   UNL     1     143.175  95.682 134.559  1.00  0.00    -0.142 NA
ATOM      3  N   UNL     1     141.954  96.294 134.519  1.00  0.00    -0.149 NA
ATOM      4  C   UNL     1     141.463  96.971 135.578  1.00  0.00     0.103 A 
ATOM      5  C   UNL     1     142.222  97.080 136.767  1.00  0.00     0.028 A 
ATOM      6  C   UNL     1     143.519  96.501 136.805  1.00  0.00     0.075 A 
ATOM      7  C   UNL     1     141.653  97.756 137.874  1.00  0.00     0.013 A 
ATOM      8  C   UNL     1     140.389  98.332 137.806  1.00  0.00     0.002 A 
ATOM      9  C   UNL     1     139.661  98.241 136.631  1.00  0.00     0.011 A 
ATOM     10  C   UNL     1     140.186  97.563 135.516  1.00  0.00     0.017 A 
ENDROOT
BRANCH   1  11
ATOM     11  C   UNL     1     145.263  95.102 135.593  1.00  0.00     0.273 C 
ATOM     12  N   UNL     1     145.220  93.767 135.238  1.00  0.00    -0.351 N 
ATOM     13  O   UNL     1     146.307  95.708 135.815  1.00  0.00    -0.267 OA
ATOM     14  H   UNL     1     144.304  93.358 135.073  1.00  0.00     0.163 HD
BRANCH  12  15
ATOM     15  C   UNL     1     146.399  92.935 135.130  1.00  0.00     0.116 C 
BRANCH  15  16
ATOM     16  C   UNL     1     146.393  91.787 136.137  1.00  0.00     0.018 C 
ATOM     17  C   UNL     1     145.653  90.555 135.634  1.00  0.00     0.006 C 
ENDBRANCH  15  16
ENDBRANCH  12  15
ENDBRANCH   1  11
BRANCH   6  18
ATOM     18  N   UNL     1     144.276  96.510 138.008  1.00  0.00    -0.396 N 
ATOM     19  H   UNL     1     145.109  97.110 137.929  1.00  0.00     0.156 HD
ATOM     20  H   UNL     1     143.735  96.743 138.835  1.00  0.00     0.156 HD
ENDBRANCH   6  18
BRANCH  10  21
ATOM     21  C   UNL     1     139.374  97.481 134.287  1.00  0.00     0.062 A 
ATOM     22  C   UNL     1     139.374  98.513 133.324  1.00  0.00     0.129 A 
ATOM     23  C   UNL     1     138.564  96.359 134.060  1.00  0.00     0.134 A 
ATOM     24  C   UNL     1     138.582  98.393 132.173  1.00  0.00     0.047 A 
ATOM     25  C   UNL     1     137.774  96.244 132.920  1.00  0.00     0.040 A 
ATOM     26  C   UNL     1     137.783  97.262 131.975  1.00  0.00     0.007 A 
ATOM     27  F   UNL     1     138.544  95.353 134.949  1.00  0.00    -0.206 F 
BRANCH  22  28
ATOM     28  O   UNL     1     140.191  99.585 133.588  1.00  0.00    -0.496 OA
ATOM     29  C   UNL     1     139.758 100.862 133.138  1.00  0.00     0.278 C 
ENDBRANCH  22  28
ENDBRANCH  10  21
TORSDOF 6
ENDMDL
MODEL 7
REMARK VINA RESULT:    -6.567      3.880      6.171
REMARK INTER + INTRA:          -9.799
REMARK INTER:                  -8.730
REMARK INTRA:                  -1.069
REMARK UNBOUND:                -1.121
REMARK SMILES CCCNC(=O)c1nnc2c(-c3c(F)cccc3OC)cccc2c1N
REMARK SMILES IDX 7 1 8 2 9 3 10 4 24 5 25 6 23 7 22 8 21 9 11 10 5 11 4 12
REMARK SMILES IDX 6 13 3 15 2 16 1 17 26 18 12 21 18 22 13 23 17 24 15 25
REMARK SMILES IDX 16 26 14 27 19 28 20 29
REMARK H PARENT 4 14 26 19 26 20
ROOT
ATOM      1  C   UNL     1     142.979  96.132 137.942  1.00  0.00     0.174 A 
ATOM      2  N   UNL     1     144.323  96.152 138.085  1.00  0.00    -0.142 NA
ATOM      3  N   UNL     1     145.111  95.673 137.077  1.00  0.00    -0.149 NA
ATOM      4  C   UNL     1     144.583  95.150 135.950  1.00  0.00     0.103 A 
ATOM      5  C   UNL     1     143.180  95.103 135.777  1.00  0.00     0.028 A 
ATOM      6  C   UNL     1     142.347  95.652 136.789  1.00  0.00     0.075 A 
ATOM      7  C   UNL     1     142.662  94.503 134.602  1.00  0.00     0.013 A 
ATOM      8  C   UNL     1     143.498  93.990 133.616  1.00  0.00     0.002 A 
ATOM      9  C   UNL     1     144.872  94.060 133.783  1.00  0.00     0.011 A 
ATOM     10  C   UNL     1     145.422  94.634 134.943  1.00  0.00     0.017 A 
ENDROOT
BRANCH   1  11
ATOM     11  C   UNL     1     142.219  96.718 139.094  1.00  0.00     0.273 C 
ATOM     12  N   UNL     1     142.684  96.360 140.346  1.00  0.00    -0.351 N 
ATOM     13  O   UNL     1     141.263  97.469 138.919  1.00  0.00    -0.267 OA
ATOM     14  H   UNL     1     143.484  95.734 140.383  1.00  0.00     0.163 HD
BRANCH  12  15
ATOM     15  C   UNL     1     142.069  96.800 141.578  1.00  0.00     0.116 C 
BRANCH  15  16
ATOM     16  C   UNL     1     143.044  97.563 142.473  1.00  0.00     0.018 C 
ATOM     17  C   UNL     1     142.351  98.350 143.577  1.00  0.00     0.006 C 
ENDBRANCH  15  16
ENDBRANCH  12  15
ENDBRANCH   1  11
BRANCH   6  18
ATOM     18  N   UNL     1     140.933  95.545 136.694  1.00  0.00    -0.396 N 
ATOM     19  H   UNL     1     140.472  96.455 136.830  1.00  0.00     0.156 HD
ATOM     20  H   UNL     1     140.609  95.094 135.845  1.00  0.00     0.156 HD
ENDBRANCH   6  18
BRANCH  10  21
ATOM     21  C   UNL     1     146.889  94.680 135.085  1.00  0.00     0.062 A 
ATOM     22  C   UNL     1     147.657  95.737 134.550  1.00  0.00     0.129 A 
ATOM     23  C   UNL     1     147.558  93.646 135.757  1.00  0.00     0.134 A 
ATOM     24  C   UNL     1     149.051  95.736 134.706  1.00  0.00     0.047 A 
ATOM     25  C   UNL     1     148.942  93.644 135.905  1.00  0.00     0.040 A 
ATOM     26  C   UNL     1     149.689  94.690 135.380  1.00  0.00     0.007 A 
ATOM     27  F   UNL     1     146.861  92.628 136.286  1.00  0.00    -0.206 F 
BRANCH  22  28
ATOM     28  O   UNL     1     146.955  96.730 133.911  1.00  0.00    -0.496 OA
ATOM     29  C   UNL     1     147.165  96.882 132.514  1.00  0.00     0.278 C 
ENDBRANCH  22  28
ENDBRANCH  10  21
TORSDOF 6
ENDMDL
MODEL 8
REMARK VINA RESULT:    -6.523      2.792      4.776
REMARK INTER + INTRA:          -9.741
REMARK INTER:                  -8.594
REMARK INTRA:                  -1.147
REMARK UNBOUND:                -1.121
REMARK SMILES CCCNC(=O)c1nnc2c(-c3c(F)cccc3OC)cccc2c1N
REMARK SMILES IDX 7 1 8 2 9 3 10 4 24 5 25 6 23 7 22 8 21 9 11 10 5 11 4 12
REMARK SMILES IDX 6 13 3 15 2 16 1 17 26 18 12 21 18 22 13 23 17 24 15 25
REMARK SMILES IDX 16 26 14 27 19 28 20 29
REMARK H PARENT 4 14 26 19 26 20
ROOT
ATOM      1  C   UNL     1     144.192  96.010 136.366  1.00  0.00     0.174 A 
ATOM      2  N   UNL     1     143.675  95.762 135.142  1.00  0.00    -0.142 NA
ATOM      3  N   UNL     1     142.441  96.255 134.824  1.00  0.00    -0.149 NA
ATOM      4  C   UNL     1     141.707  96.959 135.711  1.00  0.00     0.103 A 
ATOM      5  C   UNL     1     142.216  97.224 137.004  1.00  0.00     0.028 A 
ATOM      6  C   UNL     1     143.522  96.771 137.331  1.00  0.00     0.075 A 
ATOM      7  C   UNL     1     141.396  97.924 137.924  1.00  0.00     0.013 A 
ATOM      8  C   UNL     1     140.128  98.374 137.575  1.00  0.00     0.002 A 
ATOM      9  C   UNL     1     139.646  98.131 136.298  1.00  0.00     0.011 A 
ATOM     10  C   UNL     1     140.424  97.425 135.364  1.00  0.00     0.017 A 
ENDROOT
BRANCH   1  11
ATOM     11  C   UNL     1     145.567  95.454 136.588  1.00  0.00     0.273 C 
ATOM     12  N   UNL     1     146.397  95.485 135.483  1.00  0.00    -0.351 N 
ATOM     13  O   UNL     1     145.916  95.018 137.682  1.00  0.00    -0.267 OA
ATOM     14  H   UNL     1     146.013  95.868 134.624  1.00  0.00     0.163 HD
BRANCH  12  15
ATOM     15  C   UNL     1     147.749  94.970 135.490  1.00  0.00     0.116 C 
BRANCH  15  16
ATOM     16  C   UNL     1     148.793  96.083 135.527  1.00  0.00     0.018 C 
ATOM     17  C   UNL     1     149.335  96.348 136.925  1.00  0.00     0.006 C 
ENDBRANCH  15  16
ENDBRANCH  12  15
ENDBRANCH   1  11
BRANCH   6  18
ATOM     18  N   UNL     1     144.034  96.938 138.646  1.00  0.00    -0.396 N 
ATOM     19  H   UNL     1     144.382  97.894 138.802  1.00  0.00     0.156 HD
ATOM     20  H   UNL     1     143.388  96.661 139.379  1.00  0.00     0.156 HD
ENDBRANCH   6  18
BRANCH  10  21
ATOM     21  C   UNL     1     139.870  97.179 134.019  1.00  0.00     0.062 A 
ATOM     22  C   UNL     1     140.121  98.052 132.938  1.00  0.00     0.129 A 
ATOM     23  C   UNL     1     139.057  96.058 133.794  1.00  0.00     0.134 A 
ATOM     24  C   UNL     1     139.567  97.780 131.679  1.00  0.00     0.047 A 
ATOM     25  C   UNL     1     138.505  95.793 132.544  1.00  0.00     0.040 A 
ATOM     26  C   UNL     1     138.761  96.655 131.485  1.00  0.00     0.007 A 
ATOM     27  F   UNL     1     138.802  95.201 134.795  1.00  0.00    -0.206 F 
BRANCH  22  28
ATOM     28  O   UNL     1     140.930  99.129 133.208  1.00  0.00    -0.496 OA
ATOM     29  C   UNL     1     140.346 100.422 133.120  1.00  0.00     0.278 C 
ENDBRANCH  22  28
ENDBRANCH  10  21
TORSDOF 6
ENDMDL
MODEL 9
REMARK VINA RESULT:    -6.370      3.951      6.512
REMARK INTER + INTRA:          -9.539
REMARK INTER:                  -8.704
REMARK INTRA:                  -0.834
REMARK UNBOUND:                -1.121
REMARK SMILES CCCNC(=O)c1nnc2c(-c3c(F)cccc3OC)cccc2c1N
REMARK SMILES IDX 7 1 8 2 9 3 10 4 24 5 25 6 23 7 22 8 21 9 11 10 5 11 4 12
REMARK SMILES IDX 6 13 3 15 2 16 1 17 26 18 12 21 18 22 13 23 17 24 15 25
REMARK SMILES IDX 16 26 14 27 19 28 20 29
REMARK H PARENT 4 14 26 19 26 20
ROOT
ATOM      1  C   UNL     1     145.166  98.617 142.299  1.00  0.00     0.174 A 
ATOM      2  N   UNL     1     145.283  98.458 140.962  1.00  0.00    -0.142 NA
ATOM      3  N   UNL     1     144.235  97.939 140.255  1.00  0.00    -0.149 NA
ATOM      4  C   UNL     1     143.093  97.551 140.859  1.00  0.00     0.103 A 
ATOM      5  C   UNL     1     142.946  97.692 142.260  1.00  0.00     0.028 A 
ATOM      6  C   UNL     1     144.002  98.285 143.002  1.00  0.00     0.075 A 
ATOM      7  C   UNL     1     141.752  97.228 142.865  1.00  0.00     0.013 A 
ATOM      8  C   UNL     1     140.723  96.668 142.115  1.00  0.00     0.002 A 
ATOM      9  C   UNL     1     140.866  96.554 140.741  1.00  0.00     0.011 A 
ATOM     10  C   UNL     1     142.044  96.989 140.107  1.00  0.00     0.017 A 
ENDROOT
BRANCH   1  11
ATOM     11  C   UNL     1     146.363  99.230 142.962  1.00  0.00     0.273 C 
ATOM     12  N   UNL     1     146.542 100.579 142.718  1.00  0.00    -0.351 N 
ATOM     13  O   UNL     1     147.111  98.569 143.677  1.00  0.00    -0.267 OA
ATOM     14  H   UNL     1     145.864 101.035 142.113  1.00  0.00     0.163 HD
BRANCH  12  15
ATOM     15  C   UNL     1     147.651 101.342 143.246  1.00  0.00     0.116 C 
BRANCH  15  16
ATOM     16  C   UNL     1     147.457 101.707 144.716  1.00  0.00     0.018 C 
ATOM     17  C   UNL     1     148.654 101.348 145.584  1.00  0.00     0.006 C 
ENDBRANCH  15  16
ENDBRANCH  12  15
ENDBRANCH   1  11
BRANCH   6  18
ATOM     18  N   UNL     1     143.930  98.364 144.419  1.00  0.00    -0.396 N 
ATOM     19  H   UNL     1     144.725  97.886 144.868  1.00  0.00     0.156 HD
ATOM     20  H   UNL     1     143.823  99.308 144.775  1.00  0.00     0.156 HD
ENDBRANCH   6  18
BRANCH  10  21
ATOM     21  C   UNL     1     142.159  96.841 138.644  1.00  0.00     0.062 A 
ATOM     22  C   UNL     1     141.467  97.689 137.752  1.00  0.00     0.129 A 
ATOM     23  C   UNL     1     142.963  95.825 138.107  1.00  0.00     0.134 A 
ATOM     24  C   UNL     1     141.604  97.506 136.368  1.00  0.00     0.047 A 
ATOM     25  C   UNL     1     143.092  95.642 136.733  1.00  0.00     0.040 A 
ATOM     26  C   UNL     1     142.412  96.484 135.862  1.00  0.00     0.007 A 
ATOM     27  F   UNL     1     143.642  95.003 138.923  1.00  0.00    -0.206 F 
BRANCH  22  28
ATOM     28  O   UNL     1     140.702  98.673 138.327  1.00  0.00    -0.496 OA
ATOM     29  C   UNL     1     139.320  98.703 137.995  1.00  0.00     0.278 C 
ENDBRANCH  22  28
ENDBRANCH  10  21
TORSDOF 6
ENDMDL
MODEL 10
REMARK VINA RESULT:    -6.294      4.074      7.166
REMARK INTER + INTRA:          -9.438
REMARK INTER:                  -9.432
REMARK INTRA:                  -0.006
REMARK UNBOUND:                -1.121
REMARK SMILES CCCNC(=O)c1nnc2c(-c3c(F)cccc3OC)cccc2c1N
REMARK SMILES IDX 7 1 8 2 9 3 10 4 24 5 25 6 23 7 22 8 21 9 11 10 5 11 4 12
REMARK SMILES IDX 6 13 3 15 2 16 1 17 26 18 12 21 18 22 13 23 17 24 15 25
REMARK SMILES IDX 16 26 14 27 19 28 20 29
REMARK H PARENT 4 14 26 19 26 20
ROOT
ATOM      1  C   UNL     1     145.303  99.020 142.518  1.00  0.00     0.174 A 
ATOM      2  N   UNL     1     145.279  98.529 141.259  1.00  0.00    -0.142 NA
ATOM      3  N   UNL     1     144.162  97.879 140.815  1.00  0.00    -0.149 NA
ATOM      4  C   UNL     1     143.090  97.686 141.611  1.00  0.00     0.103 A 
ATOM      5  C   UNL     1     143.090  98.178 142.937  1.00  0.00     0.028 A 
ATOM      6  C   UNL     1     144.219  98.908 143.395  1.00  0.00     0.075 A 
ATOM      7  C   UNL     1     141.966  97.913 143.758  1.00  0.00     0.013 A 
ATOM      8  C   UNL     1     140.863  97.212 143.281  1.00  0.00     0.002 A 
ATOM      9  C   UNL     1     140.861  96.755 141.973  1.00  0.00     0.011 A 
ATOM     10  C   UNL     1     141.966  96.984 141.134  1.00  0.00     0.017 A 
ENDROOT
BRANCH   1  11
ATOM     11  C   UNL     1     146.565  99.747 142.881  1.00  0.00     0.273 C 
ATOM     12  N   UNL     1     146.526 100.420 144.087  1.00  0.00    -0.351 N 
ATOM     13  O   UNL     1     147.553  99.723 142.152  1.00  0.00    -0.267 OA
ATOM     14  H   UNL     1     145.660 100.376 144.617  1.00  0.00     0.163 HD
BRANCH  12  15
ATOM     15  C   UNL     1     147.632 101.200 144.597  1.00  0.00     0.116 C 
BRANCH  15  16
ATOM     16  C   UNL     1     147.687 102.599 143.985  1.00  0.00     0.018 C 
ATOM     17  C   UNL     1     148.938 102.838 143.152  1.00  0.00     0.006 C 
ENDBRANCH  15  16
ENDBRANCH  12  15
ENDBRANCH   1  11
BRANCH   6  18
ATOM     18  N   UNL     1     144.297  99.341 144.747  1.00  0.00    -0.396 N 
ATOM     19  H   UNL     1     143.418  99.775 145.060  1.00  0.00     0.156 HD
ATOM     20  H   UNL     1     144.599  98.619 145.394  1.00  0.00     0.156 HD
ENDBRANCH   6  18
BRANCH  10  21
ATOM     21  C   UNL     1     141.926  96.471 139.751  1.00  0.00     0.062 A 
ATOM     22  C   UNL     1     142.325  95.155 139.432  1.00  0.00     0.129 A 
ATOM     23  C   UNL     1     141.495  97.306 138.710  1.00  0.00     0.134 A 
ATOM     24  C   UNL     1     142.275  94.714 138.102  1.00  0.00     0.047 A 
ATOM     25  C   UNL     1     141.451  96.868 137.390  1.00  0.00     0.040 A 
ATOM     26  C   UNL     1     141.841  95.569 137.085  1.00  0.00     0.007 A 
ATOM     27  F   UNL     1     141.100  98.562 138.975  1.00  0.00    -0.206 F 
BRANCH  22  28
ATOM     28  O   UNL     1     142.729  94.375 140.488  1.00  0.00    -0.496 OA
ATOM     29  C   UNL     1     141.851  93.340 140.909  1.00  0.00     0.278 C 
ENDBRANCH  22  28
ENDBRANCH  10  21
TORSDOF 6
ENDMDL
MODEL 11
REMARK VINA RESULT:    -6.284      3.556      5.939
REMARK INTER + INTRA:          -9.425
REMARK INTER:                  -8.409
REMARK INTRA:                  -1.017
REMARK UNBOUND:                -1.121
REMARK SMILES CCCNC(=O)c1nnc2c(-c3c(F)cccc3OC)cccc2c1N
REMARK SMILES IDX 7 1 8 2 9 3 10 4 24 5 25 6 23 7 22 8 21 9 11 10 5 11 4 12
REMARK SMILES IDX 6 13 3 15 2 16 1 17 26 18 12 21 18 22 13 23 17 24 15 25
REMARK SMILES IDX 16 26 14 27 19 28 20 29
REMARK H PARENT 4 14 26 19 26 20
ROOT
ATOM      1  C   UNL     1     142.909  96.152 137.863  1.00  0.00     0.174 A 
ATOM      2  N   UNL     1     144.256  96.202 137.961  1.00  0.00    -0.142 NA
ATOM      3  N   UNL     1     145.020  95.743 136.925  1.00  0.00    -0.149 NA
ATOM      4  C   UNL     1     144.466  95.213 135.815  1.00  0.00     0.103 A 
ATOM      5  C   UNL     1     143.059  95.136 135.688  1.00  0.00     0.028 A 
ATOM      6  C   UNL     1     142.249  95.663 136.730  1.00  0.00     0.075 A 
ATOM      7  C   UNL     1     142.516  94.529 134.529  1.00  0.00     0.013 A 
ATOM      8  C   UNL     1     143.329  94.037 133.514  1.00  0.00     0.002 A 
ATOM      9  C   UNL     1     144.705  94.137 133.635  1.00  0.00     0.011 A 
ATOM     10  C   UNL     1     145.281  94.719 134.778  1.00  0.00     0.017 A 
ENDROOT
BRANCH   1  11
ATOM     11  C   UNL     1     142.175  96.718 139.043  1.00  0.00     0.273 C 
ATOM     12  N   UNL     1     142.663  96.329 140.277  1.00  0.00    -0.351 N 
ATOM     13  O   UNL     1     141.221  97.479 138.903  1.00  0.00    -0.267 OA
ATOM     14  H   UNL     1     143.459  95.697 140.284  1.00  0.00     0.163 HD
BRANCH  12  15
ATOM     15  C   UNL     1     142.074  96.746 141.531  1.00  0.00     0.116 C 
BRANCH  15  16
ATOM     16  C   UNL     1     143.057  97.526 142.401  1.00  0.00     0.018 C 
ATOM     17  C   UNL     1     142.383  98.260 143.552  1.00  0.00     0.006 C 
ENDBRANCH  15  16
ENDBRANCH  12  15
ENDBRANCH   1  11
BRANCH   6  18
ATOM     18  N   UNL     1     140.836  95.525 136.683  1.00  0.00    -0.396 N 
ATOM     19  H   UNL     1     140.536  94.937 135.892  1.00  0.00     0.156 HD
ATOM     20  H   UNL     1     140.423  95.205 137.553  1.00  0.00     0.156 HD
ENDBRANCH   6  18
BRANCH  10  21
ATOM     21  C   UNL     1     146.752  94.797 134.871  1.00  0.00     0.062 A 
ATOM     22  C   UNL     1     147.503  93.855 135.606  1.00  0.00     0.129 A 
ATOM     23  C   UNL     1     147.437  95.838 134.227  1.00  0.00     0.134 A 
ATOM     24  C   UNL     1     148.899  93.974 135.670  1.00  0.00     0.047 A 
ATOM     25  C   UNL     1     148.822  95.957 134.296  1.00  0.00     0.040 A 
ATOM     26  C   UNL     1     149.554  95.023 135.018  1.00  0.00     0.007 A 
ATOM     27  F   UNL     1     146.757  96.749 133.511  1.00  0.00    -0.206 F 
BRANCH  22  28
ATOM     28  O   UNL     1     146.787  92.851 136.209  1.00  0.00    -0.496 OA
ATOM     29  C   UNL     1     147.138  91.513 135.883  1.00  0.00     0.278 C 
ENDBRANCH  22  28
ENDBRANCH  10  21
TORSDOF 6
ENDMDL
MODEL 12
REMARK VINA RESULT:    -6.241      1.880      4.068
REMARK INTER + INTRA:          -9.369
REMARK INTER:                  -8.568
REMARK INTRA:                  -0.801
REMARK UNBOUND:                -1.121
REMARK SMILES CCCNC(=O)c1nnc2c(-c3c(F)cccc3OC)cccc2c1N
REMARK SMILES IDX 7 1 8 2 9 3 10 4 24 5 25 6 23 7 22 8 21 9 11 10 5 11 4 12
REMARK SMILES IDX 6 13 3 15 2 16 1 17 26 18 12 21 18 22 13 23 17 24 15 25
REMARK SMILES IDX 16 26 14 27 19 28 20 29
REMARK H PARENT 4 14 26 19 26 20
ROOT
ATOM      1  C   UNL     1     143.059  97.073 138.036  1.00  0.00     0.174 A 
ATOM      2  N   UNL     1     144.152  96.622 137.381  1.00  0.00    -0.142 NA
ATOM      3  N   UNL     1     144.141  96.572 136.016  1.00  0.00    -0.149 NA
ATOM      4  C   UNL     1     143.055  96.933 135.300  1.00  0.00     0.103 A 
ATOM      5  C   UNL     1     141.891  97.398 135.958  1.00  0.00     0.028 A 
ATOM      6  C   UNL     1     141.907  97.513 137.374  1.00  0.00     0.075 A 
ATOM      7  C   UNL     1     140.755  97.722 135.176  1.00  0.00     0.013 A 
ATOM      8  C   UNL     1     140.770  97.619 133.790  1.00  0.00     0.002 A 
ATOM      9  C   UNL     1     141.921  97.186 133.151  1.00  0.00     0.011 A 
ATOM     10  C   UNL     1     143.063  96.840 133.895  1.00  0.00     0.017 A 
ENDROOT
BRANCH   1  11
ATOM     11  C   UNL     1     143.200  97.119 139.528  1.00  0.00     0.273 C 
ATOM     12  N   UNL     1     142.366  96.263 140.223  1.00  0.00    -0.351 N 
ATOM     13  O   UNL     1     144.012  97.861 140.075  1.00  0.00    -0.267 OA
ATOM     14  H   UNL     1     141.730  95.688 139.676  1.00  0.00     0.163 HD
BRANCH  12  15
ATOM     15  C   UNL     1     142.334  96.182 141.666  1.00  0.00     0.116 C 
BRANCH  15  16
ATOM     16  C   UNL     1     141.328  97.154 142.280  1.00  0.00     0.018 C 
ATOM     17  C   UNL     1     141.910  97.974 143.423  1.00  0.00     0.006 C 
ENDBRANCH  15  16
ENDBRANCH  12  15
ENDBRANCH   1  11
BRANCH   6  18
ATOM     18  N   UNL     1     140.731  97.889 138.079  1.00  0.00    -0.396 N 
ATOM     19  H   UNL     1     140.066  98.388 137.472  1.00  0.00     0.156 HD
ATOM     20  H   UNL     1     140.277  97.122 138.564  1.00  0.00     0.156 HD
ENDBRANCH   6  18
BRANCH  10  21
ATOM     21  C   UNL     1     144.265  96.374 133.176  1.00  0.00     0.062 A 
ATOM     22  C   UNL     1     144.461  95.013 132.856  1.00  0.00     0.129 A 
ATOM     23  C   UNL     1     145.256  97.295 132.805  1.00  0.00     0.134 A 
ATOM     24  C   UNL     1     145.622  94.617 132.175  1.00  0.00     0.047 A 
ATOM     25  C   UNL     1     146.410  96.898 132.136  1.00  0.00     0.040 A 
ATOM     26  C   UNL     1     146.593  95.558 131.820  1.00  0.00     0.007 A 
ATOM     27  F   UNL     1     145.102  98.598 133.086  1.00  0.00    -0.206 F 
BRANCH  22  28
ATOM     28  O   UNL     1     143.457  94.155 133.231  1.00  0.00    -0.496 OA
ATOM     29  C   UNL     1     143.781  93.148 134.181  1.00  0.00     0.278 C 
ENDBRANCH  22  28
ENDBRANCH  10  21
TORSDOF 6
ENDMDL
MODEL 13
REMARK VINA RESULT:    -6.207      3.031      5.371
REMARK INTER + INTRA:          -9.324
REMARK INTER:                  -8.487
REMARK INTRA:                  -0.837
REMARK UNBOUND:                -1.121
REMARK SMILES CCCNC(=O)c1nnc2c(-c3c(F)cccc3OC)cccc2c1N
REMARK SMILES IDX 7 1 8 2 9 3 10 4 24 5 25 6 23 7 22 8 21 9 11 10 5 11 4 12
REMARK SMILES IDX 6 13 3 15 2 16 1 17 26 18 12 21 18 22 13 23 17 24 15 25
REMARK SMILES IDX 16 26 14 27 19 28 20 29
REMARK H PARENT 4 14 26 19 26 20
ROOT
ATOM      1  C   UNL     1     142.784  96.759 138.517  1.00  0.00     0.174 A 
ATOM      2  N   UNL     1     143.772  95.854 138.339  1.00  0.00    -0.142 NA
ATOM      3  N   UNL     1     144.243  95.616 137.079  1.00  0.00    -0.149 NA
ATOM      4  C   UNL     1     143.728  96.239 135.999  1.00  0.00     0.103 A 
ATOM      5  C   UNL     1     142.685  97.183 136.152  1.00  0.00     0.028 A 
ATOM      6  C   UNL     1     142.224  97.487 137.461  1.00  0.00     0.075 A 
ATOM      7  C   UNL     1     142.137  97.781 134.990  1.00  0.00     0.013 A 
ATOM      8  C   UNL     1     142.618  97.483 133.720  1.00  0.00     0.002 A 
ATOM      9  C   UNL     1     143.655  96.574 133.580  1.00  0.00     0.011 A 
ATOM     10  C   UNL     1     144.213  95.948 134.709  1.00  0.00     0.017 A 
ENDROOT
BRANCH   1  11
ATOM     11  C   UNL     1     142.375  96.965 139.945  1.00  0.00     0.273 C 
ATOM     12  N   UNL     1     143.407  97.276 140.811  1.00  0.00    -0.351 N 
ATOM     13  O   UNL     1     141.203  96.871 140.299  1.00  0.00    -0.267 OA
ATOM     14  H   UNL     1     144.343  97.332 140.418  1.00  0.00     0.163 HD
BRANCH  12  15
ATOM     15  C   UNL     1     143.218  97.484 142.230  1.00  0.00     0.116 C 
BRANCH  15  16
ATOM     16  C   UNL     1     144.278  98.407 142.827  1.00  0.00     0.018 C 
ATOM     17  C   UNL     1     143.741  99.288 143.947  1.00  0.00     0.006 C 
ENDBRANCH  15  16
ENDBRANCH  12  15
ENDBRANCH   1  11
BRANCH   6  18
ATOM     18  N   UNL     1     141.120  98.361 137.651  1.00  0.00    -0.396 N 
ATOM     19  H   UNL     1     141.373  99.342 137.467  1.00  0.00     0.156 HD
ATOM     20  H   UNL     1     140.289  98.095 137.132  1.00  0.00     0.156 HD
ENDBRANCH   6  18
BRANCH  10  21
ATOM     21  C   UNL     1     145.309  94.981 134.515  1.00  0.00     0.062 A 
ATOM     22  C   UNL     1     146.619  95.394 134.188  1.00  0.00     0.129 A 
ATOM     23  C   UNL     1     145.057  93.607 134.642  1.00  0.00     0.134 A 
ATOM     24  C   UNL     1     147.628  94.436 134.009  1.00  0.00     0.047 A 
ATOM     25  C   UNL     1     146.059  92.658 134.457  1.00  0.00     0.040 A 
ATOM     26  C   UNL     1     147.346  93.073 134.141  1.00  0.00     0.007 A 
ATOM     27  F   UNL     1     143.826  93.175 134.959  1.00  0.00    -0.206 F 
BRANCH  22  28
ATOM     28  O   UNL     1     146.816  96.749 134.085  1.00  0.00    -0.496 OA
ATOM     29  C   UNL     1     147.351  97.240 132.863  1.00  0.00     0.278 C 
ENDBRANCH  22  28
ENDBRANCH  10  21
TORSDOF 6
ENDMDL
MODEL 14
REMARK VINA RESULT:    -6.169      2.547      4.477
REMARK INTER + INTRA:          -9.274
REMARK INTER:                  -8.189
REMARK INTRA:                  -1.085
REMARK UNBOUND:                -1.121
REMARK SMILES CCCNC(=O)c1nnc2c(-c3c(F)cccc3OC)cccc2c1N
REMARK SMILES IDX 7 1 8 2 9 3 10 4 24 5 25 6 23 7 22 8 21 9 11 10 5 11 4 12
REMARK SMILES IDX 6 13 3 15 2 16 1 17 26 18 12 21 18 22 13 23 17 24 15 25
REMARK SMILES IDX 16 26 14 27 19 28 20 29
REMARK H PARENT 4 14 26 19 26 20
ROOT
ATOM      1  C   UNL     1     144.116  96.015 135.576  1.00  0.00     0.174 A 
ATOM      2  N   UNL     1     143.567  96.222 134.358  1.00  0.00    -0.142 NA
ATOM      3  N   UNL     1     142.400  96.926 134.261  1.00  0.00    -0.149 NA
ATOM      4  C   UNL     1     141.762  97.399 135.352  1.00  0.00     0.103 A 
ATOM      5  C   UNL     1     142.306  97.188 136.641  1.00  0.00     0.028 A 
ATOM      6  C   UNL     1     143.549  96.509 136.756  1.00  0.00     0.075 A 
ATOM      7  C   UNL     1     141.583  97.656 137.766  1.00  0.00     0.013 A 
ATOM      8  C   UNL     1     140.377  98.334 137.627  1.00  0.00     0.002 A 
ATOM      9  C   UNL     1     139.863  98.557 136.360  1.00  0.00     0.011 A 
ATOM     10  C   UNL     1     140.544  98.093 135.221  1.00  0.00     0.017 A 
ENDROOT
BRANCH   1  11
ATOM     11  C   UNL     1     145.414  95.264 135.556  1.00  0.00     0.273 C 
ATOM     12  N   UNL     1     145.371  94.036 134.923  1.00  0.00    -0.351 N 
ATOM     13  O   UNL     1     146.433  95.727 136.061  1.00  0.00    -0.267 OA
ATOM     14  H   UNL     1     144.477  93.744 134.536  1.00  0.00     0.163 HD
BRANCH  12  15
ATOM     15  C   UNL     1     146.511  93.152 134.824  1.00  0.00     0.116 C 
BRANCH  15  16
ATOM     16  C   UNL     1     146.596  92.181 136.000  1.00  0.00     0.018 C 
ATOM     17  C   UNL     1     145.837  90.884 135.759  1.00  0.00     0.006 C 
ENDBRANCH  15  16
ENDBRANCH  12  15
ENDBRANCH   1  11
BRANCH   6  18
ATOM     18  N   UNL     1     144.084  96.199 138.036  1.00  0.00    -0.396 N 
ATOM     19  H   UNL     1     144.177  97.038 138.624  1.00  0.00     0.156 HD
ATOM     20  H   UNL     1     143.584  95.463 138.525  1.00  0.00     0.156 HD
ENDBRANCH   6  18
BRANCH  10  21
ATOM     21  C   UNL     1     139.957  98.344 133.891  1.00  0.00     0.062 A 
ATOM     22  C   UNL     1     139.194  97.366 133.217  1.00  0.00     0.129 A 
ATOM     23  C   UNL     1     140.164  99.579 133.259  1.00  0.00     0.134 A 
ATOM     24  C   UNL     1     138.660  97.648 131.951  1.00  0.00     0.047 A 
ATOM     25  C   UNL     1     139.638  99.854 132.000  1.00  0.00     0.040 A 
ATOM     26  C   UNL     1     138.884  98.888 131.346  1.00  0.00     0.007 A 
ATOM     27  F   UNL     1     140.877 100.537 133.872  1.00  0.00    -0.206 F 
BRANCH  22  28
ATOM     28  O   UNL     1     139.012  96.178 133.882  1.00  0.00    -0.496 OA
ATOM     29  C   UNL     1     139.615  95.018 133.324  1.00  0.00     0.278 C 
ENDBRANCH  22  28
ENDBRANCH  10  21
TORSDOF 6
ENDMDL
MODEL 15
REMARK VINA RESULT:    -6.095      2.478      4.661
REMARK INTER + INTRA:          -9.175
REMARK INTER:                  -8.052
REMARK INTRA:                  -1.123
REMARK UNBOUND:                -1.121
REMARK SMILES CCCNC(=O)c1nnc2c(-c3c(F)cccc3OC)cccc2c1N
REMARK SMILES IDX 7 1 8 2 9 3 10 4 24 5 25 6 23 7 22 8 21 9 11 10 5 11 4 12
REMARK SMILES IDX 6 13 3 15 2 16 1 17 26 18 12 21 18 22 13 23 17 24 15 25
REMARK SMILES IDX 16 26 14 27 19 28 20 29
REMARK H PARENT 4 14 26 19 26 20
ROOT
ATOM      1  C   UNL     1     144.341  96.035 135.537  1.00  0.00     0.174 A 
ATOM      2  N   UNL     1     143.748  96.244 134.340  1.00  0.00    -0.142 NA
ATOM      3  N   UNL     1     142.550  96.898 134.292  1.00  0.00    -0.149 NA
ATOM      4  C   UNL     1     141.923  97.317 135.412  1.00  0.00     0.103 A 
ATOM      5  C   UNL     1     142.513  97.101 136.680  1.00  0.00     0.028 A 
ATOM      6  C   UNL     1     143.787  96.476 136.744  1.00  0.00     0.075 A 
ATOM      7  C   UNL     1     141.803  97.511 137.836  1.00  0.00     0.013 A 
ATOM      8  C   UNL     1     140.565  98.138 137.747  1.00  0.00     0.002 A 
ATOM      9  C   UNL     1     140.005  98.367 136.500  1.00  0.00     0.011 A 
ATOM     10  C   UNL     1     140.673  97.959 135.332  1.00  0.00     0.017 A 
ENDROOT
BRANCH   1  11
ATOM     11  C   UNL     1     145.669  95.342 135.463  1.00  0.00     0.273 C 
ATOM     12  N   UNL     1     146.585  95.921 134.605  1.00  0.00    -0.351 N 
ATOM     13  O   UNL     1     145.911  94.342 136.133  1.00  0.00    -0.267 OA
ATOM     14  H   UNL     1     146.287  96.749 134.096  1.00  0.00     0.163 HD
BRANCH  12  15
ATOM     15  C   UNL     1     147.909  95.385 134.376  1.00  0.00     0.116 C 
BRANCH  15  16
ATOM     16  C   UNL     1     148.999  96.443 134.539  1.00  0.00     0.018 C 
ATOM     17  C   UNL     1     149.652  96.422 135.914  1.00  0.00     0.006 C 
ENDBRANCH  15  16
ENDBRANCH  12  15
ENDBRANCH   1  11
BRANCH   6  18
ATOM     18  N   UNL     1     144.372  96.160 138.000  1.00  0.00    -0.396 N 
ATOM     19  H   UNL     1     145.331  96.528 138.078  1.00  0.00     0.156 HD
ATOM     20  H   UNL     1     143.810  96.437 138.799  1.00  0.00     0.156 HD
ENDBRANCH   6  18
BRANCH  10  21
ATOM     21  C   UNL     1     140.037  98.214 134.025  1.00  0.00     0.062 A 
ATOM     22  C   UNL     1     139.205  97.258 133.402  1.00  0.00     0.129 A 
ATOM     23  C   UNL     1     140.265  99.429 133.363  1.00  0.00     0.134 A 
ATOM     24  C   UNL     1     138.626  97.543 132.157  1.00  0.00     0.047 A 
ATOM     25  C   UNL     1     139.695  99.707 132.125  1.00  0.00     0.040 A 
ATOM     26  C   UNL     1     138.873  98.763 131.521  1.00  0.00     0.007 A 
ATOM     27  F   UNL     1     141.044 100.366 133.927  1.00  0.00    -0.206 F 
BRANCH  22  28
ATOM     28  O   UNL     1     139.005  96.090 134.095  1.00  0.00    -0.496 OA
ATOM     29  C   UNL     1     139.640  94.919 133.598  1.00  0.00     0.278 C 
ENDBRANCH  22  28
ENDBRANCH  10  21
TORSDOF 6
ENDMDL
MODEL 16
REMARK VINA RESULT:    -6.052      3.719      6.319
REMARK INTER + INTRA:          -9.118
REMARK INTER:                  -8.523
REMARK INTRA:                  -0.595
REMARK UNBOUND:                -1.121
REMARK SMILES CCCNC(=O)c1nnc2c(-c3c(F)cccc3OC)cccc2c1N
REMARK SMILES IDX 7 1 8 2 9 3 10 4 24 5 25 6 23 7 22 8 21 9 11 10 5 11 4 12
REMARK SMILES IDX 6 13 3 15 2 16 1 17 26 18 12 21 18 22 13 23 17 24 15 25
REMARK SMILES IDX 16 26 14 27 19 28 20 29
REMARK H PARENT 4 14 26 19 26 20
ROOT
ATOM      1  C   UNL     1     145.177  98.659 142.305  1.00  0.00     0.174 A 
ATOM      2  N   UNL     1     145.419  98.802 140.983  1.00  0.00    -0.142 NA
ATOM      3  N   UNL     1     144.547  98.262 140.080  1.00  0.00    -0.149 NA
ATOM      4  C   UNL     1     143.463  97.560 140.473  1.00  0.00     0.103 A 
ATOM      5  C   UNL     1     143.191  97.382 141.849  1.00  0.00     0.028 A 
ATOM      6  C   UNL     1     144.054  97.988 142.801  1.00  0.00     0.075 A 
ATOM      7  C   UNL     1     142.071  96.598 142.222  1.00  0.00     0.013 A 
ATOM      8  C   UNL     1     141.229  96.031 141.272  1.00  0.00     0.002 A 
ATOM      9  C   UNL     1     141.489  96.229 139.925  1.00  0.00     0.011 A 
ATOM     10  C   UNL     1     142.601  96.988 139.517  1.00  0.00     0.017 A 
ENDROOT
BRANCH   1  11
ATOM     11  C   UNL     1     146.180  99.325 143.199  1.00  0.00     0.273 C 
ATOM     12  N   UNL     1     145.977 100.677 143.402  1.00  0.00    -0.351 N 
ATOM     13  O   UNL     1     147.101  98.697 143.715  1.00  0.00    -0.267 OA
ATOM     14  H   UNL     1     145.184 101.104 142.931  1.00  0.00     0.163 HD
BRANCH  12  15
ATOM     15  C   UNL     1     146.851 101.500 144.209  1.00  0.00     0.116 C 
BRANCH  15  16
ATOM     16  C   UNL     1     148.181 101.788 143.515  1.00  0.00     0.018 C 
ATOM     17  C   UNL     1     148.586 103.253 143.586  1.00  0.00     0.006 C 
ENDBRANCH  15  16
ENDBRANCH  12  15
ENDBRANCH   1  11
BRANCH   6  18
ATOM     18  N   UNL     1     143.867  97.759 144.191  1.00  0.00    -0.396 N 
ATOM     19  H   UNL     1     144.733  97.435 144.644  1.00  0.00     0.156 HD
ATOM     20  H   UNL     1     143.467  98.548 144.690  1.00  0.00     0.156 HD
ENDBRANCH   6  18
BRANCH  10  21
ATOM     21  C   UNL     1     142.847  97.167 138.074  1.00  0.00     0.062 A 
ATOM     22  C   UNL     1     143.894  96.494 137.407  1.00  0.00     0.129 A 
ATOM     23  C   UNL     1     142.036  98.036 137.331  1.00  0.00     0.134 A 
ATOM     24  C   UNL     1     144.092  96.699 136.034  1.00  0.00     0.047 A 
ATOM     25  C   UNL     1     142.238  98.244 135.970  1.00  0.00     0.040 A 
ATOM     26  C   UNL     1     143.268  97.574 135.320  1.00  0.00     0.007 A 
ATOM     27  F   UNL     1     141.025  98.688 137.928  1.00  0.00    -0.206 F 
BRANCH  22  28
ATOM     28  O   UNL     1     144.653  95.646 138.177  1.00  0.00    -0.496 OA
ATOM     29  C   UNL     1     145.918  95.254 137.662  1.00  0.00     0.278 C 
ENDBRANCH  22  28
ENDBRANCH  10  21
TORSDOF 6
ENDMDL
MODEL 17
REMARK VINA RESULT:    -6.023      1.912      2.631
REMARK INTER + INTRA:          -9.081
REMARK INTER:                  -8.285
REMARK INTRA:                  -0.796
REMARK UNBOUND:                -1.121
REMARK SMILES CCCNC(=O)c1nnc2c(-c3c(F)cccc3OC)cccc2c1N
REMARK SMILES IDX 7 1 8 2 9 3 10 4 24 5 25 6 23 7 22 8 21 9 11 10 5 11 4 12
REMARK SMILES IDX 6 13 3 15 2 16 1 17 26 18 12 21 18 22 13 23 17 24 15 25
REMARK SMILES IDX 16 26 14 27 19 28 20 29
REMARK H PARENT 4 14 26 19 26 20
ROOT
ATOM      1  C   UNL     1     141.907  96.506 137.598  1.00  0.00     0.174 A 
ATOM      2  N   UNL     1     141.010  95.797 136.877  1.00  0.00    -0.142 NA
ATOM      3  N   UNL     1     140.796  96.124 135.568  1.00  0.00    -0.149 NA
ATOM      4  C   UNL     1     141.434  97.157 134.979  1.00  0.00     0.103 A 
ATOM      5  C   UNL     1     142.370  97.926 135.712  1.00  0.00     0.028 A 
ATOM      6  C   UNL     1     142.649  97.562 137.056  1.00  0.00     0.075 A 
ATOM      7  C   UNL     1     142.983  99.032 135.074  1.00  0.00     0.013 A 
ATOM      8  C   UNL     1     142.708  99.357 133.750  1.00  0.00     0.002 A 
ATOM      9  C   UNL     1     141.808  98.585 133.033  1.00  0.00     0.011 A 
ATOM     10  C   UNL     1     141.167  97.489 133.637  1.00  0.00     0.017 A 
ENDROOT
BRANCH   1  11
ATOM     11  C   UNL     1     142.087  96.034 139.010  1.00  0.00     0.273 C 
ATOM     12  N   UNL     1     141.456  96.802 139.970  1.00  0.00    -0.351 N 
ATOM     13  O   UNL     1     142.741  95.028 139.273  1.00  0.00    -0.267 OA
ATOM     14  H   UNL     1     140.937  97.615 139.648  1.00  0.00     0.163 HD
BRANCH  12  15
ATOM     15  C   UNL     1     141.534  96.525 141.387  1.00  0.00     0.116 C 
BRANCH  15  16
ATOM     16  C   UNL     1     142.690  97.263 142.060  1.00  0.00     0.018 C 
ATOM     17  C   UNL     1     142.261  98.047 143.292  1.00  0.00     0.006 C 
ENDBRANCH  15  16
ENDBRANCH  12  15
ENDBRANCH   1  11
BRANCH   6  18
ATOM     18  N   UNL     1     143.513  98.361 137.853  1.00  0.00    -0.396 N 
ATOM     19  H   UNL     1     144.148  98.930 137.275  1.00  0.00     0.156 HD
ATOM     20  H   UNL     1     143.031  98.934 138.538  1.00  0.00     0.156 HD
ENDBRANCH   6  18
BRANCH  10  21
ATOM     21  C   UNL     1     140.209  96.699 132.840  1.00  0.00     0.062 A 
ATOM     22  C   UNL     1     138.819  96.942 132.890  1.00  0.00     0.129 A 
ATOM     23  C   UNL     1     140.674  95.665 132.014  1.00  0.00     0.134 A 
ATOM     24  C   UNL     1     137.946  96.162 132.118  1.00  0.00     0.047 A 
ATOM     25  C   UNL     1     139.805  94.888 131.254  1.00  0.00     0.040 A 
ATOM     26  C   UNL     1     138.440  95.137 131.305  1.00  0.00     0.007 A 
ATOM     27  F   UNL     1     141.989  95.409 131.934  1.00  0.00    -0.206 F 
BRANCH  22  28
ATOM     28  O   UNL     1     138.416  97.971 133.705  1.00  0.00    -0.496 OA
ATOM     29  C   UNL     1     138.055  99.196 133.080  1.00  0.00     0.278 C 
ENDBRANCH  22  28
ENDBRANCH  10  21
TORSDOF 6
ENDMDL
MODEL 18
REMARK VINA RESULT:    -6.004      3.631      4.493
REMARK INTER + INTRA:          -9.055
REMARK INTER:                  -8.060
REMARK INTRA:                  -0.995
REMARK UNBOUND:                -1.121
REMARK SMILES CCCNC(=O)c1nnc2c(-c3c(F)cccc3OC)cccc2c1N
REMARK SMILES IDX 7 1 8 2 9 3 10 4 24 5 25 6 23 7 22 8 21 9 11 10 5 11 4 12
REMARK SMILES IDX 6 13 3 15 2 16 1 17 26 18 12 21 18 22 13 23 17 24 15 25
REMARK SMILES IDX 16 26 14 27 19 28 20 29
REMARK H PARENT 4 14 26 19 26 20
ROOT
ATOM      1  C   UNL     1     144.658  95.463 135.716  1.00  0.00     0.174 A 
ATOM      2  N   UNL     1     144.247  96.750 135.686  1.00  0.00    -0.142 NA
ATOM      3  N   UNL     1     143.103  97.072 135.011  1.00  0.00    -0.149 NA
ATOM      4  C   UNL     1     142.386  96.143 134.345  1.00  0.00     0.103 A 
ATOM      5  C   UNL     1     142.798  94.789 134.347  1.00  0.00     0.028 A 
ATOM      6  C   UNL     1     143.952  94.427 135.094  1.00  0.00     0.075 A 
ATOM      7  C   UNL     1     142.047  93.852 133.596  1.00  0.00     0.013 A 
ATOM      8  C   UNL     1     140.910  94.227 132.889  1.00  0.00     0.002 A 
ATOM      9  C   UNL     1     140.500  95.550 132.911  1.00  0.00     0.011 A 
ATOM     10  C   UNL     1     141.230  96.512 133.631  1.00  0.00     0.017 A 
ENDROOT
BRANCH   1  11
ATOM     11  C   UNL     1     145.903  95.223 136.518  1.00  0.00     0.273 C 
ATOM     12  N   UNL     1     147.083  95.296 135.803  1.00  0.00    -0.351 N 
ATOM     13  O   UNL     1     145.857  94.993 137.723  1.00  0.00    -0.267 OA
ATOM     14  H   UNL     1     147.013  95.494 134.808  1.00  0.00     0.163 HD
BRANCH  12  15
ATOM     15  C   UNL     1     148.384  95.068 136.392  1.00  0.00     0.116 C 
BRANCH  15  16
ATOM     16  C   UNL     1     149.021  96.356 136.910  1.00  0.00     0.018 C 
ATOM     17  C   UNL     1     149.002  96.464 138.428  1.00  0.00     0.006 C 
ENDBRANCH  15  16
ENDBRANCH  12  15
ENDBRANCH   1  11
BRANCH   6  18
ATOM     18  N   UNL     1     144.450  93.097 135.049  1.00  0.00    -0.396 N 
ATOM     19  H   UNL     1     145.249  93.010 134.405  1.00  0.00     0.156 HD
ATOM     20  H   UNL     1     144.671  92.708 135.960  1.00  0.00     0.156 HD
ENDBRANCH   6  18
BRANCH  10  21
ATOM     21  C   UNL     1     140.763  97.912 133.621  1.00  0.00     0.062 A 
ATOM     22  C   UNL     1     141.270  98.859 132.706  1.00  0.00     0.129 A 
ATOM     23  C   UNL     1     139.798  98.332 134.548  1.00  0.00     0.134 A 
ATOM     24  C   UNL     1     140.799 100.180 132.737  1.00  0.00     0.047 A 
ATOM     25  C   UNL     1     139.338  99.645 134.581  1.00  0.00     0.040 A 
ATOM     26  C   UNL     1     139.838 100.570 133.674  1.00  0.00     0.007 A 
ATOM     27  F   UNL     1     139.287  97.458 135.430  1.00  0.00    -0.206 F 
BRANCH  22  28
ATOM     28  O   UNL     1     142.204  98.396 131.812  1.00  0.00    -0.496 OA
ATOM     29  C   UNL     1     143.534  98.876 131.951  1.00  0.00     0.278 C 
ENDBRANCH  22  28
ENDBRANCH  10  21
TORSDOF 6
ENDMDL
MODEL 19
REMARK VINA RESULT:    -5.886      3.114      4.417
REMARK INTER + INTRA:          -8.900
REMARK INTER:                  -7.874
REMARK INTRA:                  -1.026
REMARK UNBOUND:                -1.121
REMARK SMILES CCCNC(=O)c1nnc2c(-c3c(F)cccc3OC)cccc2c1N
REMARK SMILES IDX 7 1 8 2 9 3 10 4 24 5 25 6 23 7 22 8 21 9 11 10 5 11 4 12
REMARK SMILES IDX 6 13 3 15 2 16 1 17 26 18 12 21 18 22 13 23 17 24 15 25
REMARK SMILES IDX 16 26 14 27 19 28 20 29
REMARK H PARENT 4 14 26 19 26 20
ROOT
ATOM      1  C   UNL     1     144.619  95.539 135.736  1.00  0.00     0.174 A 
ATOM      2  N   UNL     1     144.235  96.834 135.694  1.00  0.00    -0.142 NA
ATOM      3  N   UNL     1     143.074  97.168 135.055  1.00  0.00    -0.149 NA
ATOM      4  C   UNL     1     142.313  96.242 134.435  1.00  0.00     0.103 A 
ATOM      5  C   UNL     1     142.695  94.880 134.451  1.00  0.00     0.028 A 
ATOM      6  C   UNL     1     143.867  94.507 135.162  1.00  0.00     0.075 A 
ATOM      7  C   UNL     1     141.897  93.944 133.748  1.00  0.00     0.013 A 
ATOM      8  C   UNL     1     140.743  94.330 133.075  1.00  0.00     0.002 A 
ATOM      9  C   UNL     1     140.362  95.662 133.084  1.00  0.00     0.011 A 
ATOM     10  C   UNL     1     141.139  96.622 133.757  1.00  0.00     0.017 A 
ENDROOT
BRANCH   1  11
ATOM     11  C   UNL     1     145.887  95.288 136.496  1.00  0.00     0.273 C 
ATOM     12  N   UNL     1     147.046  95.368 135.747  1.00  0.00    -0.351 N 
ATOM     13  O   UNL     1     145.877  95.041 137.699  1.00  0.00    -0.267 OA
ATOM     14  H   UNL     1     146.946  95.580 134.757  1.00  0.00     0.163 HD
BRANCH  12  15
ATOM     15  C   UNL     1     148.364  95.132 136.293  1.00  0.00     0.116 C 
BRANCH  15  16
ATOM     16  C   UNL     1     148.999  96.405 136.849  1.00  0.00     0.018 C 
ATOM     17  C   UNL     1     149.094  96.411 138.368  1.00  0.00     0.006 C 
ENDBRANCH  15  16
ENDBRANCH  12  15
ENDBRANCH   1  11
BRANCH   6  18
ATOM     18  N   UNL     1     144.335  93.165 135.127  1.00  0.00    -0.396 N 
ATOM     19  H   UNL     1     145.212  93.081 134.595  1.00  0.00     0.156 HD
ATOM     20  H   UNL     1     144.419  92.733 136.041  1.00  0.00     0.156 HD
ENDBRANCH   6  18
BRANCH  10  21
ATOM     21  C   UNL     1     140.703  98.031 133.734  1.00  0.00     0.062 A 
ATOM     22  C   UNL     1     139.896  98.579 134.755  1.00  0.00     0.129 A 
ATOM     23  C   UNL     1     141.081  98.861 132.668  1.00  0.00     0.134 A 
ATOM     24  C   UNL     1     139.502  99.923 134.687  1.00  0.00     0.047 A 
ATOM     25  C   UNL     1     140.684 100.193 132.600  1.00  0.00     0.040 A 
ATOM     26  C   UNL     1     139.894 100.726 133.612  1.00  0.00     0.007 A 
ATOM     27  F   UNL     1     141.854  98.379 131.683  1.00  0.00    -0.206 F 
BRANCH  22  28
ATOM     28  O   UNL     1     139.561  97.729 135.780  1.00  0.00    -0.496 OA
ATOM     29  C   UNL     1     139.984  98.087 137.089  1.00  0.00     0.278 C 
ENDBRANCH  22  28
ENDBRANCH  10  21
TORSDOF 6
ENDMDL
MODEL 20
REMARK VINA RESULT:    -5.793      4.256      7.588
REMARK INTER + INTRA:          -8.776
REMARK INTER:                  -7.645
REMARK INTRA:                  -1.131
REMARK UNBOUND:                -1.121
REMARK SMILES CCCNC(=O)c1nnc2c(-c3c(F)cccc3OC)cccc2c1N
REMARK SMILES IDX 7 1 8 2 9 3 10 4 24 5 25 6 23 7 22 8 21 9 11 10 5 11 4 12
REMARK SMILES IDX 6 13 3 15 2 16 1 17 26 18 12 21 18 22 13 23 17 24 15 25
REMARK SMILES IDX 16 26 14 27 19 28 20 29
REMARK H PARENT 4 14 26 19 26 20
ROOT
ATOM      1  C   UNL     1     143.563  98.092 132.751  1.00  0.00     0.174 A 
ATOM      2  N   UNL     1     144.489  98.345 133.703  1.00  0.00    -0.142 NA
ATOM      3  N   UNL     1     145.699  97.715 133.645  1.00  0.00    -0.149 NA
ATOM      4  C   UNL     1     145.988  96.820 132.676  1.00  0.00     0.103 A 
ATOM      5  C   UNL     1     145.036  96.525 131.672  1.00  0.00     0.028 A 
ATOM      6  C   UNL     1     143.794  97.217 131.684  1.00  0.00     0.075 A 
ATOM      7  C   UNL     1     145.357  95.546 130.701  1.00  0.00     0.013 A 
ATOM      8  C   UNL     1     146.586  94.896 130.699  1.00  0.00     0.002 A 
ATOM      9  C   UNL     1     147.523  95.207 131.671  1.00  0.00     0.011 A 
ATOM     10  C   UNL     1     147.233  96.163 132.662  1.00  0.00     0.017 A 
ENDROOT
BRANCH   1  11
ATOM     11  C   UNL     1     142.289  98.870 132.896  1.00  0.00     0.273 C 
ATOM     12  N   UNL     1     141.670  98.756 134.127  1.00  0.00    -0.351 N 
ATOM     13  O   UNL     1     141.849  99.561 131.981  1.00  0.00    -0.267 OA
ATOM     14  H   UNL     1     142.117  98.160 134.818  1.00  0.00     0.163 HD
BRANCH  12  15
ATOM     15  C   UNL     1     140.420  99.407 134.451  1.00  0.00     0.116 C 
BRANCH  15  16
ATOM     16  C   UNL     1     139.604  98.619 135.473  1.00  0.00     0.018 C 
ATOM     17  C   UNL     1     140.377  98.316 136.749  1.00  0.00     0.006 C 
ENDBRANCH  15  16
ENDBRANCH  12  15
ENDBRANCH   1  11
BRANCH   6  18
ATOM     18  N   UNL     1     142.777  96.885 130.748  1.00  0.00    -0.396 N 
ATOM     19  H   UNL     1     141.892  97.366 130.961  1.00  0.00     0.156 HD
ATOM     20  H   UNL     1     143.045  97.027 129.780  1.00  0.00     0.156 HD
ENDBRANCH   6  18
BRANCH  10  21
ATOM     21  C   UNL     1     148.255  96.458 133.684  1.00  0.00     0.062 A 
ATOM     22  C   UNL     1     148.300  95.767 134.915  1.00  0.00     0.129 A 
ATOM     23  C   UNL     1     149.209  97.459 133.448  1.00  0.00     0.134 A 
ATOM     24  C   UNL     1     149.287  96.086 135.858  1.00  0.00     0.047 A 
ATOM     25  C   UNL     1     150.184  97.778 134.389  1.00  0.00     0.040 A 
ATOM     26  C   UNL     1     150.224  97.090 135.595  1.00  0.00     0.007 A 
ATOM     27  F   UNL     1     149.204  98.132 132.287  1.00  0.00    -0.206 F 
BRANCH  22  28
ATOM     28  O   UNL     1     147.351  94.790 135.092  1.00  0.00    -0.496 OA
ATOM     29  C   UNL     1     146.507  94.900 136.230  1.00  0.00     0.278 C 
ENDBRANCH  22  28
ENDBRANCH  10  21
TORSDOF 6
ENDMDL
