MODEL 1
REMARK VINA RESULT:    -7.537      0.000      0.000
REMARK INTER + INTRA:          -8.735
REMARK INTER:                  -8.418
REMARK INTRA:                  -0.317
REMARK UNBOUND:                -0.317
REMARK SMILES O=C(N[C@H]1CN2CCC1CC2)c1cc2cccc(Cl)c2s1
REMARK SMILES IDX 12 1 13 2 14 3 20 4 18 5 17 6 16 7 15 8 21 9 19 10 2 11 3 12
REMARK SMILES IDX 1 13 4 15 9 16 5 17 8 18 10 19 6 20 7 21 11 22
REMARK H PARENT 3 14
ROOT
ATOM      1  C   UNL     1     143.551 138.610  90.864  1.00  0.00     0.093 A 
ATOM      2  C   UNL     1     143.807 137.300  91.089  1.00  0.00     0.034 A 
ATOM      3  C   UNL     1     145.167 136.851  91.169  1.00  0.00    -0.005 A 
ATOM      4  C   UNL     1     146.126 137.908  90.993  1.00  0.00     0.054 A 
ATOM      5  C   UNL     1     147.470 137.625  91.046  1.00  0.00     0.058 A 
ATOM      6  C   UNL     1     147.896 136.313  91.272  1.00  0.00     0.022 A 
ATOM      7  C   UNL     1     146.956 135.282  91.443  1.00  0.00     0.002 A 
ATOM      8  C   UNL     1     145.592 135.567  91.389  1.00  0.00     0.010 A 
ATOM      9  S   UNL     1     145.102 139.389  90.737  1.00  0.00    -0.128 S 
ATOM     10  Cl  UNL     1     148.667 138.928  90.828  1.00  0.00    -0.083 Cl
ENDROOT
BRANCH   1  11
ATOM     11  C   UNL     1     142.161 139.245  90.749  1.00  0.00     0.261 C 
ATOM     12  N   UNL     1     141.015 138.446  90.360  1.00  0.00    -0.347 N 
ATOM     13  O   UNL     1     142.023 140.399  90.978  1.00  0.00    -0.268 OA
ATOM     14  H   UNL     1     141.121 137.487  90.167  1.00  0.00     0.164 HD
BRANCH  12  15
ATOM     15  C   UNL     1     139.683 139.085  90.257  1.00  0.00     0.099 C 
ATOM     16  C   UNL     1     138.650 138.167  90.728  1.00  0.00     0.015 C 
ATOM     17  C   UNL     1     139.381 139.437  88.787  1.00  0.00     0.109 C 
ATOM     18  C   UNL     1     137.370 138.799  90.571  1.00  0.00     0.021 C 
ATOM     19  C   UNL     1     138.680 136.972  89.887  1.00  0.00     0.021 C 
ATOM     20  N   UNL     1     138.212 138.811  88.346  1.00  0.00    -0.301 NA
ATOM     21  C   UNL     1     137.145 139.178  89.137  1.00  0.00     0.085 C 
ATOM     22  C   UNL     1     138.374 137.405  88.403  1.00  0.00     0.085 C 
ENDBRANCH  12  15
ENDBRANCH   1  11
TORSDOF 2
ENDMDL
MODEL 2
REMARK VINA RESULT:    -7.514      2.768      3.512
REMARK INTER + INTRA:          -8.709
REMARK INTER:                  -8.383
REMARK INTRA:                  -0.326
REMARK UNBOUND:                -0.317
REMARK SMILES O=C(N[C@H]1CN2CCC1CC2)c1cc2cccc(Cl)c2s1
REMARK SMILES IDX 12 1 13 2 14 3 20 4 18 5 17 6 16 7 15 8 21 9 19 10 2 11 3 12
REMARK SMILES IDX 1 13 4 15 9 16 5 17 8 18 10 19 6 20 7 21 11 22
REMARK H PARENT 3 14
ROOT
ATOM      1  C   UNL     1     143.758 139.890  90.111  1.00  0.00     0.093 A 
ATOM      2  C   UNL     1     144.319 140.160  88.910  1.00  0.00     0.034 A 
ATOM      3  C   UNL     1     145.601 140.804  88.857  1.00  0.00    -0.005 A 
ATOM      4  C   UNL     1     146.147 141.087  90.157  1.00  0.00     0.054 A 
ATOM      5  C   UNL     1     147.372 141.701  90.262  1.00  0.00     0.058 A 
ATOM      6  C   UNL     1     148.079 142.046  89.106  1.00  0.00     0.022 A 
ATOM      7  C   UNL     1     147.541 141.769  87.838  1.00  0.00     0.002 A 
ATOM      8  C   UNL     1     146.298 141.145  87.729  1.00  0.00     0.010 A 
ATOM      9  S   UNL     1     144.885 140.464  91.308  1.00  0.00    -0.128 S 
ATOM     10  Cl  UNL     1     148.058 142.058  91.869  1.00  0.00    -0.083 Cl
ENDROOT
BRANCH   1  11
ATOM     11  C   UNL     1     142.402 139.213  90.336  1.00  0.00     0.261 C 
ATOM     12  N   UNL     1     141.174 139.868  89.927  1.00  0.00    -0.347 N 
ATOM     13  O   UNL     1     142.357 138.148  90.850  1.00  0.00    -0.268 OA
ATOM     14  H   UNL     1     141.203 140.755  89.501  1.00  0.00     0.164 HD
BRANCH  12  15
ATOM     15  C   UNL     1     139.877 139.192  90.156  1.00  0.00     0.099 C 
ATOM     16  C   UNL     1     139.453 138.499  88.943  1.00  0.00     0.015 C 
ATOM     17  C   UNL     1     138.798 140.233  90.517  1.00  0.00     0.109 C 
ATOM     18  C   UNL     1     138.173 137.894  89.185  1.00  0.00     0.021 C 
ATOM     19  C   UNL     1     139.302 139.487  87.878  1.00  0.00     0.021 C 
ATOM     20  N   UNL     1     137.733 140.192  89.614  1.00  0.00    -0.301 NA
ATOM     21  C   UNL     1     137.171 138.934  89.592  1.00  0.00     0.085 C 
ATOM     22  C   UNL     1     138.196 140.520  88.316  1.00  0.00     0.085 C 
ENDBRANCH  12  15
ENDBRANCH   1  11
TORSDOF 2
ENDMDL
MODEL 3
REMARK VINA RESULT:    -7.441      3.194      3.898
REMARK INTER + INTRA:          -8.628
REMARK INTER:                  -8.315
REMARK INTRA:                  -0.312
REMARK UNBOUND:                -0.317
REMARK SMILES O=C(N[C@H]1CN2CCC1CC2)c1cc2cccc(Cl)c2s1
REMARK SMILES IDX 12 1 13 2 14 3 20 4 18 5 17 6 16 7 15 8 21 9 19 10 2 11 3 12
REMARK SMILES IDX 1 13 4 15 9 16 5 17 8 18 10 19 6 20 7 21 11 22
REMARK H PARENT 3 14
ROOT
ATOM      1  C   UNL     1     143.907 140.026  89.446  1.00  0.00     0.093 A 
ATOM      2  C   UNL     1     144.939 140.677  90.031  1.00  0.00     0.034 A 
ATOM      3  C   UNL     1     146.030 141.142  89.223  1.00  0.00    -0.005 A 
ATOM      4  C   UNL     1     145.871 140.839  87.826  1.00  0.00     0.054 A 
ATOM      5  C   UNL     1     146.839 141.225  86.931  1.00  0.00     0.058 A 
ATOM      6  C   UNL     1     147.972 141.910  87.382  1.00  0.00     0.022 A 
ATOM      7  C   UNL     1     148.124 142.203  88.748  1.00  0.00     0.002 A 
ATOM      8  C   UNL     1     147.142 141.812  89.659  1.00  0.00     0.010 A 
ATOM      9  S   UNL     1     144.279 139.964  87.747  1.00  0.00    -0.128 S 
ATOM     10  Cl  UNL     1     146.652 140.854  85.197  1.00  0.00    -0.083 Cl
ENDROOT
BRANCH   1  11
ATOM     11  C   UNL     1     142.675 139.468  90.166  1.00  0.00     0.261 C 
ATOM     12  N   UNL     1     141.340 139.790  89.700  1.00  0.00    -0.347 N 
ATOM     13  O   UNL     1     142.815 138.772  91.114  1.00  0.00    -0.268 OA
ATOM     14  H   UNL     1     141.215 140.370  88.915  1.00  0.00     0.164 HD
BRANCH  12  15
ATOM     15  C   UNL     1     140.166 139.238  90.414  1.00  0.00     0.099 C 
ATOM     16  C   UNL     1     139.591 138.133  89.652  1.00  0.00     0.015 C 
ATOM     17  C   UNL     1     139.087 140.327  90.572  1.00  0.00     0.109 C 
ATOM     18  C   UNL     1     138.430 137.653  90.349  1.00  0.00     0.021 C 
ATOM     19  C   UNL     1     139.168 138.644  88.351  1.00  0.00     0.021 C 
ATOM     20  N   UNL     1     137.884 139.938  89.978  1.00  0.00    -0.301 NA
ATOM     21  C   UNL     1     137.435 138.759  90.533  1.00  0.00     0.085 C 
ATOM     22  C   UNL     1     138.076 139.756  88.587  1.00  0.00     0.085 C 
ENDBRANCH  12  15
ENDBRANCH   1  11
TORSDOF 2
ENDMDL
MODEL 4
REMARK VINA RESULT:    -7.053      1.354      1.830
REMARK INTER + INTRA:          -8.194
REMARK INTER:                  -7.884
REMARK INTRA:                  -0.311
REMARK UNBOUND:                -0.317
REMARK SMILES O=C(N[C@H]1CN2CCC1CC2)c1cc2cccc(Cl)c2s1
REMARK SMILES IDX 12 1 13 2 14 3 20 4 18 5 17 6 16 7 15 8 21 9 19 10 2 11 3 12
REMARK SMILES IDX 1 13 4 15 9 16 5 17 8 18 10 19 6 20 7 21 11 22
REMARK H PARENT 3 14
ROOT
ATOM      1  C   UNL     1     143.611 138.914  90.985  1.00  0.00     0.093 A 
ATOM      2  C   UNL     1     144.759 139.487  90.555  1.00  0.00     0.034 A 
ATOM      3  C   UNL     1     146.008 138.816  90.772  1.00  0.00    -0.005 A 
ATOM      4  C   UNL     1     145.865 137.556  91.451  1.00  0.00     0.054 A 
ATOM      5  C   UNL     1     146.979 136.800  91.727  1.00  0.00     0.058 A 
ATOM      6  C   UNL     1     148.244 137.259  91.345  1.00  0.00     0.022 A 
ATOM      7  C   UNL     1     148.380 138.491  90.683  1.00  0.00     0.002 A 
ATOM      8  C   UNL     1     147.250 139.260  90.403  1.00  0.00     0.010 A 
ATOM      9  S   UNL     1     144.074 137.409  91.727  1.00  0.00    -0.128 S 
ATOM     10  Cl  UNL     1     146.813 135.237  92.569  1.00  0.00    -0.083 Cl
ENDROOT
BRANCH   1  11
ATOM     11  C   UNL     1     142.204 139.501  90.832  1.00  0.00     0.261 C 
ATOM     12  N   UNL     1     141.109 138.677  90.356  1.00  0.00    -0.347 N 
ATOM     13  O   UNL     1     142.010 140.637  91.102  1.00  0.00    -0.268 OA
ATOM     14  H   UNL     1     141.262 137.732  90.127  1.00  0.00     0.164 HD
BRANCH  12  15
ATOM     15  C   UNL     1     139.759 139.269  90.218  1.00  0.00     0.099 C 
ATOM     16  C   UNL     1     138.754 138.351  90.745  1.00  0.00     0.015 C 
ATOM     17  C   UNL     1     139.446 139.522  88.729  1.00  0.00     0.109 C 
ATOM     18  C   UNL     1     137.456 138.935  90.554  1.00  0.00     0.021 C 
ATOM     19  C   UNL     1     138.818 137.109  89.979  1.00  0.00     0.021 C 
ATOM     20  N   UNL     1     138.296 138.837  88.330  1.00  0.00    -0.301 NA
ATOM     21  C   UNL     1     137.219 139.220  89.100  1.00  0.00     0.085 C 
ATOM     22  C   UNL     1     138.499 137.442  88.472  1.00  0.00     0.085 C 
ENDBRANCH  12  15
ENDBRANCH   1  11
TORSDOF 2
ENDMDL
MODEL 5
REMARK VINA RESULT:    -6.602      3.315      7.849
REMARK INTER + INTRA:          -7.690
REMARK INTER:                  -7.365
REMARK INTRA:                  -0.325
REMARK UNBOUND:                -0.317
REMARK SMILES O=C(N[C@H]1CN2CCC1CC2)c1cc2cccc(Cl)c2s1
REMARK SMILES IDX 12 1 13 2 14 3 20 4 18 5 17 6 16 7 15 8 21 9 19 10 2 11 3 12
REMARK SMILES IDX 1 13 4 15 9 16 5 17 8 18 10 19 6 20 7 21 11 22
REMARK H PARENT 3 14
ROOT
ATOM      1  C   UNL     1     142.827 138.420  90.993  1.00  0.00     0.093 A 
ATOM      2  C   UNL     1     142.062 137.305  90.927  1.00  0.00     0.034 A 
ATOM      3  C   UNL     1     140.722 137.398  90.422  1.00  0.00    -0.005 A 
ATOM      4  C   UNL     1     140.354 138.733  90.031  1.00  0.00     0.054 A 
ATOM      5  C   UNL     1     139.098 138.973  89.527  1.00  0.00     0.058 A 
ATOM      6  C   UNL     1     138.187 137.920  89.397  1.00  0.00     0.022 A 
ATOM      7  C   UNL     1     138.550 136.618  89.781  1.00  0.00     0.002 A 
ATOM      8  C   UNL     1     139.825 136.372  90.293  1.00  0.00     0.010 A 
ATOM      9  S   UNL     1     141.841 139.718  90.384  1.00  0.00    -0.128 S 
ATOM     10  Cl  UNL     1     138.631 140.623  89.041  1.00  0.00    -0.083 Cl
ENDROOT
BRANCH   1  11
ATOM     11  C   UNL     1     144.270 138.488  91.507  1.00  0.00     0.261 C 
ATOM     12  N   UNL     1     145.182 137.381  91.292  1.00  0.00    -0.347 N 
ATOM     13  O   UNL     1     144.640 139.452  92.086  1.00  0.00    -0.268 OA
ATOM     14  H   UNL     1     144.881 136.575  90.814  1.00  0.00     0.164 HD
BRANCH  12  15
ATOM     15  C   UNL     1     146.570 137.473  91.799  1.00  0.00     0.099 C 
ATOM     16  C   UNL     1     147.478 137.825  90.711  1.00  0.00     0.015 C 
ATOM     17  C   UNL     1     147.011 136.111  92.372  1.00  0.00     0.109 C 
ATOM     18  C   UNL     1     148.818 137.860  91.226  1.00  0.00     0.021 C 
ATOM     19  C   UNL     1     147.402 136.780  89.694  1.00  0.00     0.021 C 
ATOM     20  N   UNL     1     148.148 135.631  91.718  1.00  0.00    -0.301 NA
ATOM     21  C   UNL     1     149.182 136.535  91.828  1.00  0.00     0.085 C 
ATOM     22  C   UNL     1     147.856 135.419  90.348  1.00  0.00     0.085 C 
ENDBRANCH  12  15
ENDBRANCH   1  11
TORSDOF 2
ENDMDL
MODEL 6
REMARK VINA RESULT:    -6.453      2.699      3.300
REMARK INTER + INTRA:          -7.524
REMARK INTER:                  -7.217
REMARK INTRA:                  -0.308
REMARK UNBOUND:                -0.317
REMARK SMILES O=C(N[C@H]1CN2CCC1CC2)c1cc2cccc(Cl)c2s1
REMARK SMILES IDX 12 1 13 2 14 3 20 4 18 5 17 6 16 7 15 8 21 9 19 10 2 11 3 12
REMARK SMILES IDX 1 13 4 15 9 16 5 17 8 18 10 19 6 20 7 21 11 22
REMARK H PARENT 3 14
ROOT
ATOM      1  C   UNL     1     143.664 139.719  90.827  1.00  0.00     0.093 A 
ATOM      2  C   UNL     1     144.291 139.969  92.000  1.00  0.00     0.034 A 
ATOM      3  C   UNL     1     145.547 140.663  91.994  1.00  0.00    -0.005 A 
ATOM      4  C   UNL     1     145.993 141.020  90.674  1.00  0.00     0.054 A 
ATOM      5  C   UNL     1     147.181 141.691  90.515  1.00  0.00     0.058 A 
ATOM      6  C   UNL     1     147.950 142.022  91.635  1.00  0.00     0.022 A 
ATOM      7  C   UNL     1     147.512 141.670  92.923  1.00  0.00     0.002 A 
ATOM      8  C   UNL     1     146.305 140.989  93.088  1.00  0.00     0.010 A 
ATOM      9  S   UNL     1     144.683 140.387  89.584  1.00  0.00    -0.128 S 
ATOM     10  Cl  UNL     1     147.744 142.138  88.883  1.00  0.00    -0.083 Cl
ENDROOT
BRANCH   1  11
ATOM     11  C   UNL     1     142.325 138.991  90.664  1.00  0.00     0.261 C 
ATOM     12  N   UNL     1     141.133 139.718  90.272  1.00  0.00    -0.347 N 
ATOM     13  O   UNL     1     142.264 137.825  90.862  1.00  0.00    -0.268 OA
ATOM     14  H   UNL     1     141.175 140.688  90.108  1.00  0.00     0.164 HD
BRANCH  12  15
ATOM     15  C   UNL     1     139.852 138.990  90.122  1.00  0.00     0.099 C 
ATOM     16  C   UNL     1     139.629 138.655  88.719  1.00  0.00     0.015 C 
ATOM     17  C   UNL     1     138.685 139.878  90.597  1.00  0.00     0.109 C 
ATOM     18  C   UNL     1     138.360 137.993  88.603  1.00  0.00     0.021 C 
ATOM     19  C   UNL     1     139.572 139.898  87.953  1.00  0.00     0.021 C 
ATOM     20  N   UNL     1     137.753 140.077  89.575  1.00  0.00    -0.301 NA
ATOM     21  C   UNL     1     137.263 138.868  89.131  1.00  0.00     0.085 C 
ATOM     22  C   UNL     1     138.367 140.757  88.495  1.00  0.00     0.085 C 
ENDBRANCH  12  15
ENDBRANCH   1  11
TORSDOF 2
ENDMDL
MODEL 7
REMARK VINA RESULT:    -6.439      3.323      7.962
REMARK INTER + INTRA:          -7.509
REMARK INTER:                  -7.218
REMARK INTRA:                  -0.290
REMARK UNBOUND:                -0.317
REMARK SMILES O=C(N[C@H]1CN2CCC1CC2)c1cc2cccc(Cl)c2s1
REMARK SMILES IDX 12 1 13 2 14 3 20 4 18 5 17 6 16 7 15 8 21 9 19 10 2 11 3 12
REMARK SMILES IDX 1 13 4 15 9 16 5 17 8 18 10 19 6 20 7 21 11 22
REMARK H PARENT 3 14
ROOT
ATOM      1  C   UNL     1     142.602 138.721  90.529  1.00  0.00     0.093 A 
ATOM      2  C   UNL     1     141.621 139.613  90.260  1.00  0.00     0.034 A 
ATOM      3  C   UNL     1     140.259 139.166  90.189  1.00  0.00    -0.005 A 
ATOM      4  C   UNL     1     140.112 137.755  90.429  1.00  0.00     0.054 A 
ATOM      5  C   UNL     1     138.862 137.185  90.394  1.00  0.00     0.058 A 
ATOM      6  C   UNL     1     137.742 137.979  90.126  1.00  0.00     0.022 A 
ATOM      7  C   UNL     1     137.890 139.356  89.891  1.00  0.00     0.002 A 
ATOM      8  C   UNL     1     139.158 139.937  89.926  1.00  0.00     0.010 A 
ATOM      9  S   UNL     1     141.812 137.181  90.720  1.00  0.00    -0.128 S 
ATOM     10  Cl  UNL     1     138.668 135.438  90.688  1.00  0.00    -0.083 Cl
ENDROOT
BRANCH   1  11
ATOM     11  C   UNL     1     144.098 139.037  90.636  1.00  0.00     0.261 C 
ATOM     12  N   UNL     1     145.045 138.004  91.006  1.00  0.00    -0.347 N 
ATOM     13  O   UNL     1     144.481 140.136  90.417  1.00  0.00    -0.268 OA
ATOM     14  H   UNL     1     144.735 137.089  91.192  1.00  0.00     0.164 HD
BRANCH  12  15
ATOM     15  C   UNL     1     146.485 138.337  91.102  1.00  0.00     0.099 C 
ATOM     16  C   UNL     1     147.149 138.057  89.833  1.00  0.00     0.015 C 
ATOM     17  C   UNL     1     147.151 137.478  92.195  1.00  0.00     0.109 C 
ATOM     18  C   UNL     1     148.549 138.346  89.975  1.00  0.00     0.021 C 
ATOM     19  C   UNL     1     147.001 136.633  89.542  1.00  0.00     0.021 C 
ATOM     20  N   UNL     1     148.198 136.715  91.671  1.00  0.00    -0.301 NA
ATOM     21  C   UNL     1     149.142 137.533  91.088  1.00  0.00     0.085 C 
ATOM     22  C   UNL     1     147.693 135.817  90.699  1.00  0.00     0.085 C 
ENDBRANCH  12  15
ENDBRANCH   1  11
TORSDOF 2
ENDMDL
MODEL 8
REMARK VINA RESULT:    -6.335      4.439      5.521
REMARK INTER + INTRA:          -7.393
REMARK INTER:                  -7.076
REMARK INTRA:                  -0.317
REMARK UNBOUND:                -0.317
REMARK SMILES O=C(N[C@H]1CN2CCC1CC2)c1cc2cccc(Cl)c2s1
REMARK SMILES IDX 12 1 13 2 14 3 20 4 18 5 17 6 16 7 15 8 21 9 19 10 2 11 3 12
REMARK SMILES IDX 1 13 4 15 9 16 5 17 8 18 10 19 6 20 7 21 11 22
REMARK H PARENT 3 14
ROOT
ATOM      1  C   UNL     1     144.440 139.726  92.871  1.00  0.00     0.093 A 
ATOM      2  C   UNL     1     143.737 138.622  92.531  1.00  0.00     0.034 A 
ATOM      3  C   UNL     1     144.436 137.412  92.205  1.00  0.00    -0.005 A 
ATOM      4  C   UNL     1     145.866 137.542  92.291  1.00  0.00     0.054 A 
ATOM      5  C   UNL     1     146.667 136.462  92.007  1.00  0.00     0.058 A 
ATOM      6  C   UNL     1     146.088 135.244  91.638  1.00  0.00     0.022 A 
ATOM      7  C   UNL     1     144.691 135.121  91.554  1.00  0.00     0.002 A 
ATOM      8  C   UNL     1     143.876 136.216  91.842  1.00  0.00     0.010 A 
ATOM      9  S   UNL     1     146.118 139.270  92.796  1.00  0.00    -0.128 S 
ATOM     10  Cl  UNL     1     148.441 136.613  92.110  1.00  0.00    -0.083 Cl
ENDROOT
BRANCH   1  11
ATOM     11  C   UNL     1     143.845 141.089  93.241  1.00  0.00     0.261 C 
ATOM     12  N   UNL     1     142.946 141.219  94.372  1.00  0.00    -0.347 N 
ATOM     13  O   UNL     1     144.121 142.044  92.597  1.00  0.00    -0.268 OA
ATOM     14  H   UNL     1     142.710 140.430  94.911  1.00  0.00     0.164 HD
BRANCH  12  15
ATOM     15  C   UNL     1     142.385 142.547  94.708  1.00  0.00     0.099 C 
ATOM     16  C   UNL     1     142.477 142.779  96.146  1.00  0.00     0.015 C 
ATOM     17  C   UNL     1     140.899 142.607  94.304  1.00  0.00     0.109 C 
ATOM     18  C   UNL     1     141.884 144.053  96.443  1.00  0.00     0.021 C 
ATOM     19  C   UNL     1     141.707 141.742  96.829  1.00  0.00     0.021 C 
ATOM     20  N   UNL     1     140.086 142.891  95.405  1.00  0.00    -0.301 NA
ATOM     21  C   UNL     1     140.457 144.088  95.979  1.00  0.00     0.085 C 
ATOM     22  C   UNL     1     140.205 141.856  96.364  1.00  0.00     0.085 C 
ENDBRANCH  12  15
ENDBRANCH   1  11
TORSDOF 2
ENDMDL
MODEL 9
REMARK VINA RESULT:    -6.290      4.695      7.768
REMARK INTER + INTRA:          -7.342
REMARK INTER:                  -7.034
REMARK INTRA:                  -0.308
REMARK UNBOUND:                -0.317
REMARK SMILES O=C(N[C@H]1CN2CCC1CC2)c1cc2cccc(Cl)c2s1
REMARK SMILES IDX 12 1 13 2 14 3 20 4 18 5 17 6 16 7 15 8 21 9 19 10 2 11 3 12
REMARK SMILES IDX 1 13 4 15 9 16 5 17 8 18 10 19 6 20 7 21 11 22
REMARK H PARENT 3 14
ROOT
ATOM      1  C   UNL     1     144.036 140.757  93.140  1.00  0.00     0.093 A 
ATOM      2  C   UNL     1     142.959 141.179  92.436  1.00  0.00     0.034 A 
ATOM      3  C   UNL     1     141.914 141.896  93.108  1.00  0.00    -0.005 A 
ATOM      4  C   UNL     1     142.165 142.084  94.511  1.00  0.00     0.054 A 
ATOM      5  C   UNL     1     141.249 142.756  95.284  1.00  0.00     0.058 A 
ATOM      6  C   UNL     1     140.079 143.255  94.701  1.00  0.00     0.022 A 
ATOM      7  C   UNL     1     139.837 143.069  93.329  1.00  0.00     0.002 A 
ATOM      8  C   UNL     1     140.766 142.386  92.543  1.00  0.00     0.010 A 
ATOM      9  S   UNL     1     143.772 141.277  94.780  1.00  0.00    -0.128 S 
ATOM     10  Cl  UNL     1     141.550 142.993  97.025  1.00  0.00    -0.083 Cl
ENDROOT
BRANCH   1  11
ATOM     11  C   UNL     1     145.229 139.981  92.573  1.00  0.00     0.261 C 
ATOM     12  N   UNL     1     145.033 138.705  91.912  1.00  0.00    -0.347 N 
ATOM     13  O   UNL     1     146.321 140.426  92.679  1.00  0.00    -0.268 OA
ATOM     14  H   UNL     1     144.129 138.327  91.822  1.00  0.00     0.164 HD
BRANCH  12  15
ATOM     15  C   UNL     1     146.203 137.976  91.374  1.00  0.00     0.099 C 
ATOM     16  C   UNL     1     145.839 137.288  90.138  1.00  0.00     0.015 C 
ATOM     17  C   UNL     1     146.677 136.919  92.391  1.00  0.00     0.109 C 
ATOM     18  C   UNL     1     146.982 136.555  89.669  1.00  0.00     0.021 C 
ATOM     19  C   UNL     1     144.773 136.336  90.439  1.00  0.00     0.021 C 
ATOM     20  N   UNL     1     146.651 135.636  91.838  1.00  0.00    -0.301 NA
ATOM     21  C   UNL     1     147.445 135.583  90.713  1.00  0.00     0.085 C 
ATOM     22  C   UNL     1     145.321 135.296  91.488  1.00  0.00     0.085 C 
ENDBRANCH  12  15
ENDBRANCH   1  11
TORSDOF 2
ENDMDL
MODEL 10
REMARK VINA RESULT:    -6.280      3.934      7.799
REMARK INTER + INTRA:          -7.331
REMARK INTER:                  -7.024
REMARK INTRA:                  -0.306
REMARK UNBOUND:                -0.317
REMARK SMILES O=C(N[C@H]1CN2CCC1CC2)c1cc2cccc(Cl)c2s1
REMARK SMILES IDX 12 1 13 2 14 3 20 4 18 5 17 6 16 7 15 8 21 9 19 10 2 11 3 12
REMARK SMILES IDX 1 13 4 15 9 16 5 17 8 18 10 19 6 20 7 21 11 22
REMARK H PARENT 3 14
ROOT
ATOM      1  C   UNL     1     142.616 138.857  90.471  1.00  0.00     0.093 A 
ATOM      2  C   UNL     1     141.606 139.694  90.136  1.00  0.00     0.034 A 
ATOM      3  C   UNL     1     140.266 139.187  90.059  1.00  0.00    -0.005 A 
ATOM      4  C   UNL     1     140.171 137.785  90.368  1.00  0.00     0.054 A 
ATOM      5  C   UNL     1     138.946 137.162  90.335  1.00  0.00     0.058 A 
ATOM      6  C   UNL     1     137.801 137.894  90.004  1.00  0.00     0.022 A 
ATOM      7  C   UNL     1     137.899 139.263  89.703  1.00  0.00     0.002 A 
ATOM      8  C   UNL     1     139.141 139.897  89.735  1.00  0.00     0.010 A 
ATOM      9  S   UNL     1     141.885 137.298  90.724  1.00  0.00    -0.128 S 
ATOM     10  Cl  UNL     1     138.816 135.425  90.715  1.00  0.00    -0.083 Cl
ENDROOT
BRANCH   1  11
ATOM     11  C   UNL     1     144.095 139.241  90.593  1.00  0.00     0.261 C 
ATOM     12  N   UNL     1     144.800 139.828  89.470  1.00  0.00    -0.347 N 
ATOM     13  O   UNL     1     144.666 139.053  91.614  1.00  0.00    -0.268 OA
ATOM     14  H   UNL     1     144.333 139.985  88.618  1.00  0.00     0.164 HD
BRANCH  12  15
ATOM     15  C   UNL     1     146.228 140.189  89.616  1.00  0.00     0.099 C 
ATOM     16  C   UNL     1     146.520 141.395  88.847  1.00  0.00     0.015 C 
ATOM     17  C   UNL     1     147.116 139.049  89.078  1.00  0.00     0.109 C 
ATOM     18  C   UNL     1     147.920 141.691  88.972  1.00  0.00     0.021 C 
ATOM     19  C   UNL     1     146.230 141.125  87.441  1.00  0.00     0.021 C 
ATOM     20  N   UNL     1     147.949 139.498  88.050  1.00  0.00    -0.301 NA
ATOM     21  C   UNL     1     148.744 140.532  88.494  1.00  0.00     0.085 C 
ATOM     22  C   UNL     1     147.162 139.948  86.961  1.00  0.00     0.085 C 
ENDBRANCH  12  15
ENDBRANCH   1  11
TORSDOF 2
ENDMDL
MODEL 11
REMARK VINA RESULT:    -6.196      3.252      7.863
REMARK INTER + INTRA:          -7.237
REMARK INTER:                  -6.939
REMARK INTRA:                  -0.298
REMARK UNBOUND:                -0.317
REMARK SMILES O=C(N[C@H]1CN2CCC1CC2)c1cc2cccc(Cl)c2s1
REMARK SMILES IDX 12 1 13 2 14 3 20 4 18 5 17 6 16 7 15 8 21 9 19 10 2 11 3 12
REMARK SMILES IDX 1 13 4 15 9 16 5 17 8 18 10 19 6 20 7 21 11 22
REMARK H PARENT 3 14
ROOT
ATOM      1  C   UNL     1     142.062 137.330  90.653  1.00  0.00     0.093 A 
ATOM      2  C   UNL     1     140.856 136.772  90.397  1.00  0.00     0.034 A 
ATOM      3  C   UNL     1     139.713 137.619  90.205  1.00  0.00    -0.005 A 
ATOM      4  C   UNL     1     140.020 139.020  90.314  1.00  0.00     0.054 A 
ATOM      5  C   UNL     1     139.022 139.950  90.153  1.00  0.00     0.058 A 
ATOM      6  C   UNL     1     137.716 139.531  89.883  1.00  0.00     0.022 A 
ATOM      7  C   UNL     1     137.420 138.161  89.778  1.00  0.00     0.002 A 
ATOM      8  C   UNL     1     138.431 137.214  89.942  1.00  0.00     0.010 A 
ATOM      9  S   UNL     1     141.804 139.051  90.663  1.00  0.00    -0.128 S 
ATOM     10  Cl  UNL     1     139.391 141.689  90.286  1.00  0.00    -0.083 Cl
ENDROOT
BRANCH   1  11
ATOM     11  C   UNL     1     143.372 136.567  90.882  1.00  0.00     0.261 C 
ATOM     12  N   UNL     1     144.645 137.168  90.536  1.00  0.00    -0.347 N 
ATOM     13  O   UNL     1     143.342 135.477  91.344  1.00  0.00    -0.268 OA
ATOM     14  H   UNL     1     144.678 138.073  90.150  1.00  0.00     0.164 HD
BRANCH  12  15
ATOM     15  C   UNL     1     145.895 136.409  90.768  1.00  0.00     0.099 C 
ATOM     16  C   UNL     1     146.474 136.780  92.056  1.00  0.00     0.015 C 
ATOM     17  C   UNL     1     146.922 136.739  89.666  1.00  0.00     0.109 C 
ATOM     18  C   UNL     1     147.706 136.062  92.228  1.00  0.00     0.021 C 
ATOM     19  C   UNL     1     146.773 138.209  92.031  1.00  0.00     0.021 C 
ATOM     20  N   UNL     1     148.099 137.259  90.210  1.00  0.00    -0.301 NA
ATOM     21  C   UNL     1     148.650 136.366  91.103  1.00  0.00     0.085 C 
ATOM     22  C   UNL     1     147.817 138.476  90.880  1.00  0.00     0.085 C 
ENDBRANCH  12  15
ENDBRANCH   1  11
TORSDOF 2
ENDMDL
MODEL 12
REMARK VINA RESULT:    -6.193      1.497      1.938
REMARK INTER + INTRA:          -7.234
REMARK INTER:                  -6.933
REMARK INTRA:                  -0.301
REMARK UNBOUND:                -0.317
REMARK SMILES O=C(N[C@H]1CN2CCC1CC2)c1cc2cccc(Cl)c2s1
REMARK SMILES IDX 12 1 13 2 14 3 20 4 18 5 17 6 16 7 15 8 21 9 19 10 2 11 3 12
REMARK SMILES IDX 1 13 4 15 9 16 5 17 8 18 10 19 6 20 7 21 11 22
REMARK H PARENT 3 14
ROOT
ATOM      1  C   UNL     1     143.297 137.499  90.904  1.00  0.00     0.093 A 
ATOM      2  C   UNL     1     144.261 136.577  90.678  1.00  0.00     0.034 A 
ATOM      3  C   UNL     1     145.633 136.915  90.931  1.00  0.00    -0.005 A 
ATOM      4  C   UNL     1     145.807 138.256  91.419  1.00  0.00     0.054 A 
ATOM      5  C   UNL     1     147.069 138.719  91.706  1.00  0.00     0.058 A 
ATOM      6  C   UNL     1     148.175 137.883  91.524  1.00  0.00     0.022 A 
ATOM      7  C   UNL     1     148.001 136.573  91.047  1.00  0.00     0.002 A 
ATOM      8  C   UNL     1     146.721 136.101  90.754  1.00  0.00     0.010 A 
ATOM      9  S   UNL     1     144.116 138.921  91.483  1.00  0.00    -0.128 S 
ATOM     10  Cl  UNL     1     147.296 140.381  92.310  1.00  0.00    -0.083 Cl
ENDROOT
BRANCH   1  11
ATOM     11  C   UNL     1     141.794 137.296  90.682  1.00  0.00     0.261 C 
ATOM     12  N   UNL     1     140.936 138.423  90.371  1.00  0.00    -0.347 N 
ATOM     13  O   UNL     1     141.330 136.210  90.769  1.00  0.00    -0.268 OA
ATOM     14  H   UNL     1     141.313 139.329  90.300  1.00  0.00     0.164 HD
BRANCH  12  15
ATOM     15  C   UNL     1     139.487 138.199  90.162  1.00  0.00     0.099 C 
ATOM     16  C   UNL     1     139.203 138.059  88.737  1.00  0.00     0.015 C 
ATOM     17  C   UNL     1     138.687 139.404  90.696  1.00  0.00     0.109 C 
ATOM     18  C   UNL     1     137.787 137.890  88.567  1.00  0.00     0.021 C 
ATOM     19  C   UNL     1     139.604 139.293  88.065  1.00  0.00     0.021 C 
ATOM     20  N   UNL     1     137.912 139.984  89.688  1.00  0.00    -0.301 NA
ATOM     21  C   UNL     1     137.046 139.055  89.154  1.00  0.00     0.085 C 
ATOM     22  C   UNL     1     138.757 140.479  88.664  1.00  0.00     0.085 C 
ENDBRANCH  12  15
ENDBRANCH   1  11
TORSDOF 2
ENDMDL
MODEL 13
REMARK VINA RESULT:    -6.020      4.869      8.497
REMARK INTER + INTRA:          -7.040
REMARK INTER:                  -6.719
REMARK INTRA:                  -0.321
REMARK UNBOUND:                -0.317
REMARK SMILES O=C(N[C@H]1CN2CCC1CC2)c1cc2cccc(Cl)c2s1
REMARK SMILES IDX 12 1 13 2 14 3 20 4 18 5 17 6 16 7 15 8 21 9 19 10 2 11 3 12
REMARK SMILES IDX 1 13 4 15 9 16 5 17 8 18 10 19 6 20 7 21 11 22
REMARK H PARENT 3 14
ROOT
ATOM      1  C   UNL     1     139.644 141.427  90.463  1.00  0.00     0.093 A 
ATOM      2  C   UNL     1     139.543 142.323  91.472  1.00  0.00     0.034 A 
ATOM      3  C   UNL     1     138.719 143.486  91.302  1.00  0.00    -0.005 A 
ATOM      4  C   UNL     1     138.077 143.544  90.017  1.00  0.00     0.054 A 
ATOM      5  C   UNL     1     137.255 144.603  89.713  1.00  0.00     0.058 A 
ATOM      6  C   UNL     1     137.049 145.616  90.655  1.00  0.00     0.022 A 
ATOM      7  C   UNL     1     137.679 145.556  91.909  1.00  0.00     0.002 A 
ATOM      8  C   UNL     1     138.514 144.482  92.220  1.00  0.00     0.010 A 
ATOM      9  S   UNL     1     138.647 142.037  89.174  1.00  0.00    -0.128 S 
ATOM     10  Cl  UNL     1     136.455 144.686  88.122  1.00  0.00    -0.083 Cl
ENDROOT
BRANCH   1  11
ATOM     11  C   UNL     1     140.480 140.142  90.487  1.00  0.00     0.261 C 
ATOM     12  N   UNL     1     141.911 140.197  90.714  1.00  0.00    -0.347 N 
ATOM     13  O   UNL     1     139.951 139.096  90.314  1.00  0.00    -0.268 OA
ATOM     14  H   UNL     1     142.358 141.062  90.856  1.00  0.00     0.164 HD
BRANCH  12  15
ATOM     15  C   UNL     1     142.694 138.940  90.731  1.00  0.00     0.099 C 
ATOM     16  C   UNL     1     143.302 138.748  92.045  1.00  0.00     0.015 C 
ATOM     17  C   UNL     1     143.823 139.011  89.684  1.00  0.00     0.109 C 
ATOM     18  C   UNL     1     144.090 137.548  92.013  1.00  0.00     0.021 C 
ATOM     19  C   UNL     1     144.192 139.876  92.309  1.00  0.00     0.021 C 
ATOM     20  N   UNL     1     145.076 138.843  90.278  1.00  0.00    -0.301 NA
ATOM     21  C   UNL     1     145.135 137.636  90.940  1.00  0.00     0.085 C 
ATOM     22  C   UNL     1     145.311 139.893  91.199  1.00  0.00     0.085 C 
ENDBRANCH  12  15
ENDBRANCH   1  11
TORSDOF 2
ENDMDL
MODEL 14
REMARK VINA RESULT:    -6.012      5.002      6.098
REMARK INTER + INTRA:          -7.032
REMARK INTER:                  -6.720
REMARK INTRA:                  -0.312
REMARK UNBOUND:                -0.317
REMARK SMILES O=C(N[C@H]1CN2CCC1CC2)c1cc2cccc(Cl)c2s1
REMARK SMILES IDX 12 1 13 2 14 3 20 4 18 5 17 6 16 7 15 8 21 9 19 10 2 11 3 12
REMARK SMILES IDX 1 13 4 15 9 16 5 17 8 18 10 19 6 20 7 21 11 22
REMARK H PARENT 3 14
ROOT
ATOM      1  C   UNL     1     144.099 139.617  93.298  1.00  0.00     0.093 A 
ATOM      2  C   UNL     1     144.432 138.345  92.981  1.00  0.00     0.034 A 
ATOM      3  C   UNL     1     144.847 138.037  91.642  1.00  0.00    -0.005 A 
ATOM      4  C   UNL     1     144.856 139.183  90.773  1.00  0.00     0.054 A 
ATOM      5  C   UNL     1     145.233 139.039  89.459  1.00  0.00     0.058 A 
ATOM      6  C   UNL     1     145.607 137.782  88.976  1.00  0.00     0.022 A 
ATOM      7  C   UNL     1     145.596 136.664  89.828  1.00  0.00     0.002 A 
ATOM      8  C   UNL     1     145.213 136.807  91.162  1.00  0.00     0.010 A 
ATOM      9  S   UNL     1     144.306 140.547  91.841  1.00  0.00    -0.128 S 
ATOM     10  Cl  UNL     1     145.247 140.453  88.373  1.00  0.00    -0.083 Cl
ENDROOT
BRANCH   1  11
ATOM     11  C   UNL     1     143.636 140.105  94.675  1.00  0.00     0.261 C 
ATOM     12  N   UNL     1     142.985 141.393  94.821  1.00  0.00    -0.347 N 
ATOM     13  O   UNL     1     143.815 139.425  95.628  1.00  0.00    -0.268 OA
ATOM     14  H   UNL     1     142.835 141.965  94.034  1.00  0.00     0.164 HD
BRANCH  12  15
ATOM     15  C   UNL     1     142.549 141.840  96.163  1.00  0.00     0.099 C 
ATOM     16  C   UNL     1     141.112 141.629  96.318  1.00  0.00     0.015 C 
ATOM     17  C   UNL     1     142.835 143.345  96.334  1.00  0.00     0.109 C 
ATOM     18  C   UNL     1     140.715 142.115  97.610  1.00  0.00     0.021 C 
ATOM     19  C   UNL     1     140.420 142.413  95.298  1.00  0.00     0.021 C 
ATOM     20  N   UNL     1     141.665 144.055  96.613  1.00  0.00    -0.301 NA
ATOM     21  C   UNL     1     141.067 143.566  97.754  1.00  0.00     0.085 C 
ATOM     22  C   UNL     1     140.764 143.934  95.526  1.00  0.00     0.085 C 
ENDBRANCH  12  15
ENDBRANCH   1  11
TORSDOF 2
ENDMDL
MODEL 15
REMARK VINA RESULT:    -5.958      4.821      5.707
REMARK INTER + INTRA:          -6.972
REMARK INTER:                  -6.700
REMARK INTRA:                  -0.272
REMARK UNBOUND:                -0.317
REMARK SMILES O=C(N[C@H]1CN2CCC1CC2)c1cc2cccc(Cl)c2s1
REMARK SMILES IDX 12 1 13 2 14 3 20 4 18 5 17 6 16 7 15 8 21 9 19 10 2 11 3 12
REMARK SMILES IDX 1 13 4 15 9 16 5 17 8 18 10 19 6 20 7 21 11 22
REMARK H PARENT 3 14
ROOT
ATOM      1  C   UNL     1     142.377 140.519  85.870  1.00  0.00     0.093 A 
ATOM      2  C   UNL     1     142.675 141.160  84.716  1.00  0.00     0.034 A 
ATOM      3  C   UNL     1     144.027 141.158  84.237  1.00  0.00    -0.005 A 
ATOM      4  C   UNL     1     144.931 140.434  85.090  1.00  0.00     0.054 A 
ATOM      5  C   UNL     1     146.261 140.345  84.755  1.00  0.00     0.058 A 
ATOM      6  C   UNL     1     146.727 140.959  83.588  1.00  0.00     0.022 A 
ATOM      7  C   UNL     1     145.841 141.666  82.757  1.00  0.00     0.002 A 
ATOM      8  C   UNL     1     144.491 141.757  83.095  1.00  0.00     0.010 A 
ATOM      9  S   UNL     1     143.873 139.837  86.442  1.00  0.00    -0.128 S 
ATOM     10  Cl  UNL     1     147.390 139.451  85.806  1.00  0.00    -0.083 Cl
ENDROOT
BRANCH   1  11
ATOM     11  C   UNL     1     140.989 140.432  86.514  1.00  0.00     0.261 C 
ATOM     12  N   UNL     1     140.820 139.834  87.825  1.00  0.00    -0.347 N 
ATOM     13  O   UNL     1     140.046 140.854  85.935  1.00  0.00    -0.268 OA
ATOM     14  H   UNL     1     141.598 139.478  88.312  1.00  0.00     0.164 HD
BRANCH  12  15
ATOM     15  C   UNL     1     139.468 139.762  88.424  1.00  0.00     0.099 C 
ATOM     16  C   UNL     1     139.563 139.809  89.880  1.00  0.00     0.015 C 
ATOM     17  C   UNL     1     138.788 138.436  88.029  1.00  0.00     0.109 C 
ATOM     18  C   UNL     1     138.241 139.691  90.429  1.00  0.00     0.021 C 
ATOM     19  C   UNL     1     140.352 138.664  90.327  1.00  0.00     0.021 C 
ATOM     20  N   UNL     1     138.439 137.690  89.158  1.00  0.00    -0.301 NA
ATOM     21  C   UNL     1     137.596 138.417  89.970  1.00  0.00     0.085 C 
ATOM     22  C   UNL     1     139.607 137.348  89.883  1.00  0.00     0.085 C 
ENDBRANCH  12  15
ENDBRANCH   1  11
TORSDOF 2
ENDMDL
MODEL 16
REMARK VINA RESULT:    -5.957      5.222      8.174
REMARK INTER + INTRA:          -6.970
REMARK INTER:                  -6.654
REMARK INTRA:                  -0.316
REMARK UNBOUND:                -0.317
REMARK SMILES O=C(N[C@H]1CN2CCC1CC2)c1cc2cccc(Cl)c2s1
REMARK SMILES IDX 12 1 13 2 14 3 20 4 18 5 17 6 16 7 15 8 21 9 19 10 2 11 3 12
REMARK SMILES IDX 1 13 4 15 9 16 5 17 8 18 10 19 6 20 7 21 11 22
REMARK H PARENT 3 14
ROOT
ATOM      1  C   UNL     1     146.957 138.352  90.732  1.00  0.00     0.093 A 
ATOM      2  C   UNL     1     147.322 137.134  91.195  1.00  0.00     0.034 A 
ATOM      3  C   UNL     1     146.317 136.137  91.428  1.00  0.00    -0.005 A 
ATOM      4  C   UNL     1     144.987 136.589  91.119  1.00  0.00     0.054 A 
ATOM      5  C   UNL     1     143.921 135.739  91.292  1.00  0.00     0.058 A 
ATOM      6  C   UNL     1     144.136 134.441  91.767  1.00  0.00     0.022 A 
ATOM      7  C   UNL     1     145.437 134.004  92.069  1.00  0.00     0.002 A 
ATOM      8  C   UNL     1     146.520 134.865  91.894  1.00  0.00     0.010 A 
ATOM      9  S   UNL     1     145.226 138.300  90.552  1.00  0.00    -0.128 S 
ATOM     10  Cl  UNL     1     142.268 136.289  90.913  1.00  0.00    -0.083 Cl
ENDROOT
BRANCH   1  11
ATOM     11  C   UNL     1     147.904 139.520  90.435  1.00  0.00     0.261 C 
ATOM     12  N   UNL     1     148.484 139.683  89.116  1.00  0.00    -0.347 N 
ATOM     13  O   UNL     1     148.167 140.293  91.293  1.00  0.00    -0.268 OA
ATOM     14  H   UNL     1     148.272 139.043  88.399  1.00  0.00     0.164 HD
BRANCH  12  15
ATOM     15  C   UNL     1     149.396 140.820  88.857  1.00  0.00     0.099 C 
ATOM     16  C   UNL     1     148.716 141.835  88.057  1.00  0.00     0.015 C 
ATOM     17  C   UNL     1     150.630 140.335  88.071  1.00  0.00     0.109 C 
ATOM     18  C   UNL     1     149.641 142.899  87.786  1.00  0.00     0.021 C 
ATOM     19  C   UNL     1     148.323 141.231  86.787  1.00  0.00     0.021 C 
ATOM     20  N   UNL     1     150.756 141.015  86.856  1.00  0.00    -0.301 NA
ATOM     21  C   UNL     1     150.852 142.372  87.075  1.00  0.00     0.085 C 
ATOM     22  C   UNL     1     149.627 140.751  86.043  1.00  0.00     0.085 C 
ENDBRANCH  12  15
ENDBRANCH   1  11
TORSDOF 2
ENDMDL
MODEL 17
REMARK VINA RESULT:    -5.957      6.008      8.473
REMARK INTER + INTRA:          -6.970
REMARK INTER:                  -6.799
REMARK INTRA:                  -0.170
REMARK UNBOUND:                -0.317
REMARK SMILES O=C(N[C@H]1CN2CCC1CC2)c1cc2cccc(Cl)c2s1
REMARK SMILES IDX 12 1 13 2 14 3 20 4 18 5 17 6 16 7 15 8 21 9 19 10 2 11 3 12
REMARK SMILES IDX 1 13 4 15 9 16 5 17 8 18 10 19 6 20 7 21 11 22
REMARK H PARENT 3 14
ROOT
ATOM      1  C   UNL     1     138.613 142.037  88.978  1.00  0.00     0.093 A 
ATOM      2  C   UNL     1     137.951 143.208  88.831  1.00  0.00     0.034 A 
ATOM      3  C   UNL     1     137.861 144.112  89.942  1.00  0.00    -0.005 A 
ATOM      4  C   UNL     1     138.524 143.628  91.123  1.00  0.00     0.054 A 
ATOM      5  C   UNL     1     138.521 144.391  92.267  1.00  0.00     0.058 A 
ATOM      6  C   UNL     1     137.875 145.631  92.275  1.00  0.00     0.022 A 
ATOM      7  C   UNL     1     137.227 146.100  91.119  1.00  0.00     0.002 A 
ATOM      8  C   UNL     1     137.229 145.328  89.957  1.00  0.00     0.010 A 
ATOM      9  S   UNL     1     139.193 142.015  90.619  1.00  0.00    -0.128 S 
ATOM     10  Cl  UNL     1     139.338 143.800  93.737  1.00  0.00    -0.083 Cl
ENDROOT
BRANCH   1  11
ATOM     11  C   UNL     1     138.796 140.969  87.895  1.00  0.00     0.261 C 
ATOM     12  N   UNL     1     139.467 141.288  86.650  1.00  0.00    -0.347 N 
ATOM     13  O   UNL     1     138.383 139.874  88.077  1.00  0.00    -0.268 OA
ATOM     14  H   UNL     1     139.810 142.196  86.490  1.00  0.00     0.164 HD
BRANCH  12  15
ATOM     15  C   UNL     1     139.630 140.237  85.620  1.00  0.00     0.099 C 
ATOM     16  C   UNL     1     140.713 139.333  85.995  1.00  0.00     0.015 C 
ATOM     17  C   UNL     1     139.986 140.880  84.265  1.00  0.00     0.109 C 
ATOM     18  C   UNL     1     140.875 138.356  84.955  1.00  0.00     0.021 C 
ATOM     19  C   UNL     1     141.947 140.110  86.092  1.00  0.00     0.021 C 
ATOM     20  N   UNL     1     141.205 140.399  83.781  1.00  0.00    -0.301 NA
ATOM     21  C   UNL     1     141.160 139.028  83.644  1.00  0.00     0.085 C 
ATOM     22  C   UNL     1     142.244 140.744  84.680  1.00  0.00     0.085 C 
ENDBRANCH  12  15
ENDBRANCH   1  11
TORSDOF 2
ENDMDL
MODEL 18
REMARK VINA RESULT:    -5.913      3.803      7.817
REMARK INTER + INTRA:          -6.921
REMARK INTER:                  -6.618
REMARK INTRA:                  -0.303
REMARK UNBOUND:                -0.317
REMARK SMILES O=C(N[C@H]1CN2CCC1CC2)c1cc2cccc(Cl)c2s1
REMARK SMILES IDX 12 1 13 2 14 3 20 4 18 5 17 6 16 7 15 8 21 9 19 10 2 11 3 12
REMARK SMILES IDX 1 13 4 15 9 16 5 17 8 18 10 19 6 20 7 21 11 22
REMARK H PARENT 3 14
ROOT
ATOM      1  C   UNL     1     142.928 138.411  90.737  1.00  0.00     0.093 A 
ATOM      2  C   UNL     1     142.142 137.309  90.718  1.00  0.00     0.034 A 
ATOM      3  C   UNL     1     140.745 137.444  90.418  1.00  0.00    -0.005 A 
ATOM      4  C   UNL     1     140.348 138.803  90.163  1.00  0.00     0.054 A 
ATOM      5  C   UNL     1     139.038 139.084  89.860  1.00  0.00     0.058 A 
ATOM      6  C   UNL     1     138.099 138.050  89.802  1.00  0.00     0.022 A 
ATOM      7  C   UNL     1     138.490 136.724  90.053  1.00  0.00     0.002 A 
ATOM      8  C   UNL     1     139.821 136.435  90.361  1.00  0.00     0.010 A 
ATOM      9  S   UNL     1     141.887 139.752  90.354  1.00  0.00    -0.128 S 
ATOM     10  Cl  UNL     1     138.534 140.765  89.543  1.00  0.00    -0.083 Cl
ENDROOT
BRANCH   1  11
ATOM     11  C   UNL     1     144.430 138.435  91.040  1.00  0.00     0.261 C 
ATOM     12  N   UNL     1     145.227 139.605  90.729  1.00  0.00    -0.347 N 
ATOM     13  O   UNL     1     144.944 137.487  91.530  1.00  0.00    -0.268 OA
ATOM     14  H   UNL     1     144.808 140.396  90.319  1.00  0.00     0.164 HD
BRANCH  12  15
ATOM     15  C   UNL     1     146.676 139.602  91.032  1.00  0.00     0.099 C 
ATOM     16  C   UNL     1     147.075 140.894  91.581  1.00  0.00     0.015 C 
ATOM     17  C   UNL     1     147.482 139.359  89.740  1.00  0.00     0.109 C 
ATOM     18  C   UNL     1     148.492 140.872  91.820  1.00  0.00     0.021 C 
ATOM     19  C   UNL     1     146.792 141.925  90.586  1.00  0.00     0.021 C 
ATOM     20  N   UNL     1     148.367 140.411  89.490  1.00  0.00    -0.301 NA
ATOM     21  C   UNL     1     149.232 140.572  90.551  1.00  0.00     0.085 C 
ATOM     22  C   UNL     1     147.638 141.610  89.294  1.00  0.00     0.085 C 
ENDBRANCH  12  15
ENDBRANCH   1  11
TORSDOF 2
ENDMDL
MODEL 19
REMARK VINA RESULT:    -5.791      5.006      9.689
REMARK INTER + INTRA:          -6.784
REMARK INTER:                  -6.492
REMARK INTRA:                  -0.293
REMARK UNBOUND:                -0.317
REMARK SMILES O=C(N[C@H]1CN2CCC1CC2)c1cc2cccc(Cl)c2s1
REMARK SMILES IDX 12 1 13 2 14 3 20 4 18 5 17 6 16 7 15 8 21 9 19 10 2 11 3 12
REMARK SMILES IDX 1 13 4 15 9 16 5 17 8 18 10 19 6 20 7 21 11 22
REMARK H PARENT 3 14
ROOT
ATOM      1  C   UNL     1     147.407 136.719  91.721  1.00  0.00     0.093 A 
ATOM      2  C   UNL     1     146.526 135.709  91.538  1.00  0.00     0.034 A 
ATOM      3  C   UNL     1     145.134 136.009  91.361  1.00  0.00    -0.005 A 
ATOM      4  C   UNL     1     144.848 137.418  91.402  1.00  0.00     0.054 A 
ATOM      5  C   UNL     1     143.554 137.856  91.246  1.00  0.00     0.058 A 
ATOM      6  C   UNL     1     142.526 136.930  91.048  1.00  0.00     0.022 A 
ATOM      7  C   UNL     1     142.809 135.554  91.009  1.00  0.00     0.002 A 
ATOM      8  C   UNL     1     144.121 135.107  91.168  1.00  0.00     0.010 A 
ATOM      9  S   UNL     1     146.473 138.187  91.675  1.00  0.00    -0.128 S 
ATOM     10  Cl  UNL     1     143.188 139.600  91.296  1.00  0.00    -0.083 Cl
ENDROOT
BRANCH   1  11
ATOM     11  C   UNL     1     148.918 136.565  91.925  1.00  0.00     0.261 C 
ATOM     12  N   UNL     1     149.810 137.687  91.707  1.00  0.00    -0.347 N 
ATOM     13  O   UNL     1     149.360 135.519  92.262  1.00  0.00    -0.268 OA
ATOM     14  H   UNL     1     149.451 138.559  91.425  1.00  0.00     0.164 HD
BRANCH  12  15
ATOM     15  C   UNL     1     151.266 137.511  91.911  1.00  0.00     0.099 C 
ATOM     16  C   UNL     1     151.849 138.740  92.442  1.00  0.00     0.015 C 
ATOM     17  C   UNL     1     151.951 137.195  90.567  1.00  0.00     0.109 C 
ATOM     18  C   UNL     1     153.266 138.550  92.585  1.00  0.00     0.021 C 
ATOM     19  C   UNL     1     151.623 139.811  91.475  1.00  0.00     0.021 C 
ATOM     20  N   UNL     1     152.934 138.141  90.265  1.00  0.00    -0.301 NA
ATOM     21  C   UNL     1     153.880 138.185  91.266  1.00  0.00     0.085 C 
ATOM     22  C   UNL     1     152.339 139.419  90.127  1.00  0.00     0.085 C 
ENDBRANCH  12  15
ENDBRANCH   1  11
TORSDOF 2
ENDMDL
MODEL 20
REMARK VINA RESULT:    -5.769      5.294      6.364
REMARK INTER + INTRA:          -6.760
REMARK INTER:                  -6.466
REMARK INTRA:                  -0.293
REMARK UNBOUND:                -0.317
REMARK SMILES O=C(N[C@H]1CN2CCC1CC2)c1cc2cccc(Cl)c2s1
REMARK SMILES IDX 12 1 13 2 14 3 20 4 18 5 17 6 16 7 15 8 21 9 19 10 2 11 3 12
REMARK SMILES IDX 1 13 4 15 9 16 5 17 8 18 10 19 6 20 7 21 11 22
REMARK H PARENT 3 14
ROOT
ATOM      1  C   UNL     1     144.044 140.832  93.315  1.00  0.00     0.093 A 
ATOM      2  C   UNL     1     144.208 141.156  92.012  1.00  0.00     0.034 A 
ATOM      3  C   UNL     1     144.569 140.135  91.070  1.00  0.00    -0.005 A 
ATOM      4  C   UNL     1     144.711 138.836  91.669  1.00  0.00     0.054 A 
ATOM      5  C   UNL     1     145.053 137.759  90.887  1.00  0.00     0.058 A 
ATOM      6  C   UNL     1     145.259 137.933  89.515  1.00  0.00     0.022 A 
ATOM      7  C   UNL     1     145.119 139.205  88.933  1.00  0.00     0.002 A 
ATOM      8  C   UNL     1     144.773 140.299  89.726  1.00  0.00     0.010 A 
ATOM      9  S   UNL     1     144.350 139.122  93.428  1.00  0.00    -0.128 S 
ATOM     10  Cl  UNL     1     145.234 136.143  91.619  1.00  0.00    -0.083 Cl
ENDROOT
BRANCH   1  11
ATOM     11  C   UNL     1     143.664 141.801  94.440  1.00  0.00     0.261 C 
ATOM     12  N   UNL     1     142.275 142.134  94.689  1.00  0.00    -0.347 N 
ATOM     13  O   UNL     1     144.514 142.285  95.109  1.00  0.00    -0.268 OA
ATOM     14  H   UNL     1     141.563 141.739  94.136  1.00  0.00     0.164 HD
BRANCH  12  15
ATOM     15  C   UNL     1     141.936 143.074  95.782  1.00  0.00     0.099 C 
ATOM     16  C   UNL     1     141.673 142.335  97.013  1.00  0.00     0.015 C 
ATOM     17  C   UNL     1     140.666 143.868  95.417  1.00  0.00     0.109 C 
ATOM     18  C   UNL     1     141.303 143.271  98.038  1.00  0.00     0.021 C 
ATOM     19  C   UNL     1     140.545 141.438  96.779  1.00  0.00     0.021 C 
ATOM     20  N   UNL     1     139.660 143.678  96.368  1.00  0.00    -0.301 NA
ATOM     21  C   UNL     1     140.101 144.062  97.615  1.00  0.00     0.085 C 
ATOM     22  C   UNL     1     139.288 142.312  96.403  1.00  0.00     0.085 C 
ENDBRANCH  12  15
ENDBRANCH   1  11
TORSDOF 2
ENDMDL
