MODEL 1
REMARK VINA RESULT:   -13.411      0.000      0.000
REMARK INTER + INTRA:         -16.327
REMARK INTER:                 -16.155
REMARK INTRA:                  -0.171
REMARK UNBOUND:                -0.171
REMARK SMILES CC1(C)CCC(C)(C)c2cc(NC(=O)c3ccc(C(=O)O)cc3)ccc21
REMARK SMILES IDX 15 1 16 2 23 3 17 4 22 5 18 6 13 7 14 8 12 9 11 11 10 12
REMARK SMILES IDX 24 13 9 14 25 15 6 16 26 17 5 18 2 19 4 20 7 21 8 22 1 23
REMARK SMILES IDX 3 24 19 25 20 26 21 27
REMARK H PARENT 12 10 21 28
ROOT
ATOM      1  C   UNL     1      40.705  23.131 101.989  1.00  0.00     0.040 A 
ATOM      2  C   UNL     1      39.803  22.537 102.848  1.00  0.00     0.015 A 
ATOM      3  C   UNL     1      40.626  24.465 101.646  1.00  0.00     0.015 A 
ATOM      4  C   UNL     1      38.777  23.311 103.388  1.00  0.00     0.016 A 
ATOM      5  C   UNL     1      39.600  25.240 102.187  1.00  0.00     0.016 A 
ATOM      6  C   UNL     1      38.675  24.662 103.057  1.00  0.00     0.059 A 
ENDROOT
BRANCH   1   7
ATOM      7  C   UNL     1      41.798  22.306 101.413  1.00  0.00     0.255 C 
ATOM      8  O   UNL     1      41.682  21.086 101.469  1.00  0.00    -0.269 OA
ATOM      9  N   UNL     1      42.853  23.025 100.836  1.00  0.00    -0.322 N 
ATOM     10  H   UNL     1      42.837  24.038 100.903  1.00  0.00     0.170 HD
BRANCH   9  11
ATOM     11  C   UNL     1      43.991  22.522 100.205  1.00  0.00     0.041 A 
ATOM     12  C   UNL     1      43.925  21.326  99.493  1.00  0.00     0.030 A 
ATOM     13  C   UNL     1      45.192  23.207 100.286  1.00  0.00     0.026 A 
ATOM     14  C   UNL     1      45.059  20.782  98.846  1.00  0.00    -0.037 A 
ATOM     15  C   UNL     1      46.319  22.703  99.641  1.00  0.00     0.007 A 
ATOM     16  C   UNL     1      44.917  19.457  98.084  1.00  0.00    -0.010 C 
ATOM     17  C   UNL     1      46.277  21.503  98.895  1.00  0.00    -0.038 A 
ATOM     18  C   UNL     1      46.295  18.851  97.736  1.00  0.00     0.012 C 
ATOM     19  C   UNL     1      47.554  21.007  98.205  1.00  0.00    -0.010 C 
ATOM     20  C   UNL     1      47.251  19.892  97.180  1.00  0.00     0.012 C 
ATOM     21  C   UNL     1      44.114  19.715  96.789  1.00  0.00     0.016 C 
ATOM     22  C   UNL     1      44.168  18.390  98.916  1.00  0.00     0.016 C 
ATOM     23  C   UNL     1      48.526  20.479  99.283  1.00  0.00     0.016 C 
ATOM     24  C   UNL     1      48.264  22.138  97.424  1.00  0.00     0.016 C 
ENDBRANCH   9  11
ENDBRANCH   1   7
BRANCH   6  25
ATOM     25  C   UNL     1      37.605  25.471 103.621  1.00  0.00     0.335 C 
ATOM     26  O   UNL     1      36.521  25.040 104.030  1.00  0.00    -0.246 OA
BRANCH  25  27
ATOM     27  O   UNL     1      37.918  26.795 103.661  1.00  0.00    -0.478 OA
ATOM     28  H   UNL     1      37.829  27.164 104.566  1.00  0.00     0.297 HD
ENDBRANCH  25  27
ENDBRANCH   6  25
TORSDOF 4
ENDMDL
MODEL 2
REMARK VINA RESULT:   -12.484      1.262      2.927
REMARK INTER + INTRA:         -15.210
REMARK INTER:                 -15.109
REMARK INTRA:                  -0.101
REMARK UNBOUND:                -0.171
REMARK SMILES CC1(C)CCC(C)(C)c2cc(NC(=O)c3ccc(C(=O)O)cc3)ccc21
REMARK SMILES IDX 15 1 16 2 23 3 17 4 22 5 18 6 13 7 14 8 12 9 11 11 10 12
REMARK SMILES IDX 24 13 9 14 25 15 6 16 26 17 5 18 2 19 4 20 7 21 8 22 1 23
REMARK SMILES IDX 3 24 19 25 20 26 21 27
REMARK H PARENT 12 10 21 28
ROOT
ATOM      1  C   UNL     1      40.914  23.465 101.881  1.00  0.00     0.040 A 
ATOM      2  C   UNL     1      40.656  24.771 101.520  1.00  0.00     0.015 A 
ATOM      3  C   UNL     1      40.109  22.770 102.761  1.00  0.00     0.015 A 
ATOM      4  C   UNL     1      39.543  25.412 102.064  1.00  0.00     0.016 A 
ATOM      5  C   UNL     1      38.996  23.412 103.304  1.00  0.00     0.016 A 
ATOM      6  C   UNL     1      38.713  24.733 102.956  1.00  0.00     0.059 A 
ENDROOT
BRANCH   1   7
ATOM      7  C   UNL     1      42.100  22.782 101.301  1.00  0.00     0.255 C 
ATOM      8  O   UNL     1      43.193  23.323 101.437  1.00  0.00    -0.269 OA
ATOM      9  N   UNL     1      41.840  21.558 100.671  1.00  0.00    -0.322 N 
ATOM     10  H   UNL     1      40.874  21.253 100.595  1.00  0.00     0.170 HD
BRANCH   9  11
ATOM     11  C   UNL     1      42.752  20.693 100.066  1.00  0.00     0.041 A 
ATOM     12  C   UNL     1      43.932  21.192  99.518  1.00  0.00     0.030 A 
ATOM     13  C   UNL     1      42.486  19.335 100.004  1.00  0.00     0.026 A 
ATOM     14  C   UNL     1      44.876  20.347  98.890  1.00  0.00    -0.037 A 
ATOM     15  C   UNL     1      43.410  18.478  99.408  1.00  0.00     0.007 A 
ATOM     16  C   UNL     1      46.152  20.964  98.302  1.00  0.00    -0.010 C 
ATOM     17  C   UNL     1      44.623  18.954  98.862  1.00  0.00    -0.038 A 
ATOM     18  C   UNL     1      46.890  19.970  97.377  1.00  0.00     0.012 C 
ATOM     19  C   UNL     1      45.598  17.954  98.226  1.00  0.00    -0.010 C 
ATOM     20  C   UNL     1      46.988  18.585  97.993  1.00  0.00     0.012 C 
ATOM     21  C   UNL     1      47.078  21.387  99.464  1.00  0.00     0.016 C 
ATOM     22  C   UNL     1      45.846  22.214  97.444  1.00  0.00     0.016 C 
ATOM     23  C   UNL     1      45.007  17.474  96.882  1.00  0.00     0.016 C 
ATOM     24  C   UNL     1      45.825  16.717  99.127  1.00  0.00     0.016 C 
ENDBRANCH   9  11
ENDBRANCH   1   7
BRANCH   6  25
ATOM     25  C   UNL     1      37.552  25.400 103.523  1.00  0.00     0.335 C 
ATOM     26  O   UNL     1      36.547  24.835 103.968  1.00  0.00    -0.246 OA
BRANCH  25  27
ATOM     27  O   UNL     1      37.677  26.755 103.519  1.00  0.00    -0.478 OA
ATOM     28  H   UNL     1      37.672  27.121 102.608  1.00  0.00     0.297 HD
ENDBRANCH  25  27
ENDBRANCH   6  25
TORSDOF 4
ENDMDL
MODEL 3
REMARK VINA RESULT:   -12.474      1.749      3.156
REMARK INTER + INTRA:         -15.197
REMARK INTER:                 -14.760
REMARK INTRA:                  -0.437
REMARK UNBOUND:                -0.171
REMARK SMILES CC1(C)CCC(C)(C)c2cc(NC(=O)c3ccc(C(=O)O)cc3)ccc21
REMARK SMILES IDX 15 1 16 2 23 3 17 4 22 5 18 6 13 7 14 8 12 9 11 11 10 12
REMARK SMILES IDX 24 13 9 14 25 15 6 16 26 17 5 18 2 19 4 20 7 21 8 22 1 23
REMARK SMILES IDX 3 24 19 25 20 26 21 27
REMARK H PARENT 12 10 21 28
ROOT
ATOM      1  C   UNL     1      41.067  23.341 101.629  1.00  0.00     0.040 A 
ATOM      2  C   UNL     1      40.892  24.603 101.101  1.00  0.00     0.015 A 
ATOM      3  C   UNL     1      40.280  22.854 102.652  1.00  0.00     0.015 A 
ATOM      4  C   UNL     1      39.886  25.417 101.621  1.00  0.00     0.016 A 
ATOM      5  C   UNL     1      39.272  23.668 103.171  1.00  0.00     0.016 A 
ATOM      6  C   UNL     1      39.076  24.949 102.655  1.00  0.00     0.059 A 
ENDROOT
BRANCH   1   7
ATOM      7  C   UNL     1      42.140  22.475 101.075  1.00  0.00     0.255 C 
ATOM      8  O   UNL     1      43.299  22.861 101.185  1.00  0.00    -0.269 OA
ATOM      9  N   UNL     1      41.705  21.275 100.497  1.00  0.00    -0.322 N 
ATOM     10  H   UNL     1      40.705  21.106 100.436  1.00  0.00     0.170 HD
BRANCH   9  11
ATOM     11  C   UNL     1      42.481  20.265  99.926  1.00  0.00     0.041 A 
ATOM     12  C   UNL     1      43.155  20.494  98.728  1.00  0.00     0.030 A 
ATOM     13  C   UNL     1      42.582  19.031 100.546  1.00  0.00     0.026 A 
ATOM     14  C   UNL     1      43.944  19.494  98.116  1.00  0.00    -0.037 A 
ATOM     15  C   UNL     1      43.370  18.034  99.974  1.00  0.00     0.007 A 
ATOM     16  C   UNL     1      44.654  19.811  96.793  1.00  0.00    -0.010 C 
ATOM     17  C   UNL     1      44.080  18.245  98.770  1.00  0.00    -0.038 A 
ATOM     18  C   UNL     1      45.181  18.530  96.109  1.00  0.00     0.012 C 
ATOM     19  C   UNL     1      44.934  17.106  98.198  1.00  0.00    -0.010 C 
ATOM     20  C   UNL     1      45.885  17.609  97.090  1.00  0.00     0.012 C 
ATOM     21  C   UNL     1      45.828  20.774  97.080  1.00  0.00     0.016 C 
ATOM     22  C   UNL     1      43.705  20.490  95.777  1.00  0.00     0.016 C 
ATOM     23  C   UNL     1      43.994  16.021  97.629  1.00  0.00     0.016 C 
ATOM     24  C   UNL     1      45.828  16.455  99.280  1.00  0.00     0.016 C 
ENDBRANCH   9  11
ENDBRANCH   1   7
BRANCH   6  25
ATOM     25  C   UNL     1      38.025  25.796 103.197  1.00  0.00     0.335 C 
ATOM     26  O   UNL     1      36.937  25.399 103.629  1.00  0.00    -0.246 OA
BRANCH  25  27
ATOM     27  O   UNL     1      38.360  27.115 103.184  1.00  0.00    -0.478 OA
ATOM     28  H   UNL     1      38.733  27.405 104.045  1.00  0.00     0.297 HD
ENDBRANCH  25  27
ENDBRANCH   6  25
TORSDOF 4
ENDMDL
MODEL 4
REMARK VINA RESULT:   -12.143      1.043      2.749
REMARK INTER + INTRA:         -14.799
REMARK INTER:                 -14.752
REMARK INTRA:                  -0.047
REMARK UNBOUND:                -0.171
REMARK SMILES CC1(C)CCC(C)(C)c2cc(NC(=O)c3ccc(C(=O)O)cc3)ccc21
REMARK SMILES IDX 15 1 16 2 23 3 17 4 22 5 18 6 13 7 14 8 12 9 11 11 10 12
REMARK SMILES IDX 24 13 9 14 25 15 6 16 26 17 5 18 2 19 4 20 7 21 8 22 1 23
REMARK SMILES IDX 3 24 19 25 20 26 21 27
REMARK H PARENT 12 10 21 28
ROOT
ATOM      1  C   UNL     1      40.607  22.688 101.748  1.00  0.00     0.040 A 
ATOM      2  C   UNL     1      40.801  23.974 101.289  1.00  0.00     0.015 A 
ATOM      3  C   UNL     1      39.662  22.382 102.705  1.00  0.00     0.015 A 
ATOM      4  C   UNL     1      40.015  25.001 101.811  1.00  0.00     0.016 A 
ATOM      5  C   UNL     1      38.875  23.409 103.226  1.00  0.00     0.016 A 
ATOM      6  C   UNL     1      39.052  24.719 102.779  1.00  0.00     0.059 A 
ENDROOT
BRANCH   1   7
ATOM      7  C   UNL     1      41.445  21.594 101.192  1.00  0.00     0.255 C 
ATOM      8  O   UNL     1      41.126  20.439 101.456  1.00  0.00    -0.269 OA
ATOM      9  N   UNL     1      42.516  22.007 100.389  1.00  0.00    -0.322 N 
ATOM     10  H   UNL     1      42.688  23.003 100.292  1.00  0.00     0.170 HD
BRANCH   9  11
ATOM     11  C   UNL     1      43.447  21.209  99.721  1.00  0.00     0.041 A 
ATOM     12  C   UNL     1      44.627  21.769  99.235  1.00  0.00     0.030 A 
ATOM     13  C   UNL     1      43.199  19.860  99.534  1.00  0.00     0.026 A 
ATOM     14  C   UNL     1      45.589  20.995  98.547  1.00  0.00    -0.037 A 
ATOM     15  C   UNL     1      44.140  19.070  98.877  1.00  0.00     0.007 A 
ATOM     16  C   UNL     1      46.865  21.676  98.034  1.00  0.00    -0.010 C 
ATOM     17  C   UNL     1      45.355  19.606  98.392  1.00  0.00    -0.038 A 
ATOM     18  C   UNL     1      47.626  20.778  97.034  1.00  0.00     0.012 C 
ATOM     19  C   UNL     1      46.349  18.679  97.682  1.00  0.00    -0.010 C 
ATOM     20  C   UNL     1      47.734  19.344  97.525  1.00  0.00     0.012 C 
ATOM     21  C   UNL     1      47.771  22.004  99.241  1.00  0.00     0.016 C 
ATOM     22  C   UNL     1      46.553  22.995  97.287  1.00  0.00     0.016 C 
ATOM     23  C   UNL     1      45.781  18.314  96.293  1.00  0.00     0.016 C 
ATOM     24  C   UNL     1      46.581  17.369  98.472  1.00  0.00     0.016 C 
ENDBRANCH   9  11
ENDBRANCH   1   7
BRANCH   6  25
ATOM     25  C   UNL     1      38.232  25.789 103.323  1.00  0.00     0.335 C 
ATOM     26  O   UNL     1      37.242  25.635 104.047  1.00  0.00    -0.246 OA
BRANCH  25  27
ATOM     27  O   UNL     1      38.669  27.022 102.949  1.00  0.00    -0.478 OA
ATOM     28  H   UNL     1      39.161  26.994 102.100  1.00  0.00     0.297 HD
ENDBRANCH  25  27
ENDBRANCH   6  25
TORSDOF 4
ENDMDL
MODEL 5
REMARK VINA RESULT:   -11.124      0.902      1.334
REMARK INTER + INTRA:         -13.572
REMARK INTER:                 -13.575
REMARK INTRA:                   0.004
REMARK UNBOUND:                -0.171
REMARK SMILES CC1(C)CCC(C)(C)c2cc(NC(=O)c3ccc(C(=O)O)cc3)ccc21
REMARK SMILES IDX 15 1 16 2 23 3 17 4 22 5 18 6 13 7 14 8 12 9 11 11 10 12
REMARK SMILES IDX 24 13 9 14 25 15 6 16 26 17 5 18 2 19 4 20 7 21 8 22 1 23
REMARK SMILES IDX 3 24 19 25 20 26 21 27
REMARK H PARENT 12 10 21 28
ROOT
ATOM      1  C   UNL     1      41.078  22.926 101.372  1.00  0.00     0.040 A 
ATOM      2  C   UNL     1      40.894  24.289 101.270  1.00  0.00     0.015 A 
ATOM      3  C   UNL     1      40.320  22.141 102.215  1.00  0.00     0.015 A 
ATOM      4  C   UNL     1      39.906  24.895 102.047  1.00  0.00     0.016 A 
ATOM      5  C   UNL     1      39.332  22.746 102.991  1.00  0.00     0.016 A 
ATOM      6  C   UNL     1      39.125  24.123 102.908  1.00  0.00     0.059 A 
ENDROOT
BRANCH   1   7
ATOM      7  C   UNL     1      42.131  22.282 100.544  1.00  0.00     0.255 C 
ATOM      8  O   UNL     1      41.860  21.215 100.005  1.00  0.00    -0.269 OA
ATOM      9  N   UNL     1      43.336  22.991 100.447  1.00  0.00    -0.322 N 
ATOM     10  H   UNL     1      43.436  23.846 100.987  1.00  0.00     0.170 HD
BRANCH   9  11
ATOM     11  C   UNL     1      44.480  22.645  99.727  1.00  0.00     0.041 A 
ATOM     12  C   UNL     1      44.572  21.396  99.116  1.00  0.00     0.030 A 
ATOM     13  C   UNL     1      45.531  23.541  99.619  1.00  0.00     0.026 A 
ATOM     14  C   UNL     1      45.717  21.008  98.384  1.00  0.00    -0.037 A 
ATOM     15  C   UNL     1      46.663  23.191  98.886  1.00  0.00     0.007 A 
ATOM     16  C   UNL     1      45.755  19.615  97.742  1.00  0.00    -0.010 C 
ATOM     17  C   UNL     1      46.775  21.939  98.240  1.00  0.00    -0.038 A 
ATOM     18  C   UNL     1      47.180  19.239  97.283  1.00  0.00     0.012 C 
ATOM     19  C   UNL     1      48.048  21.621  97.445  1.00  0.00    -0.010 C 
ATOM     20  C   UNL     1      47.862  20.379  96.545  1.00  0.00     0.012 C 
ATOM     21  C   UNL     1      44.792  19.602  96.533  1.00  0.00     0.016 C 
ATOM     22  C   UNL     1      45.308  18.512  98.731  1.00  0.00     0.016 C 
ATOM     23  C   UNL     1      49.205  21.380  98.439  1.00  0.00     0.016 C 
ATOM     24  C   UNL     1      48.448  22.784  96.506  1.00  0.00     0.016 C 
ENDBRANCH   9  11
ENDBRANCH   1   7
BRANCH   6  25
ATOM     25  C   UNL     1      38.094  24.753 103.717  1.00  0.00     0.335 C 
ATOM     26  O   UNL     1      37.386  24.177 104.550  1.00  0.00    -0.246 OA
BRANCH  25  27
ATOM     27  O   UNL     1      37.977  26.086 103.466  1.00  0.00    -0.478 OA
ATOM     28  H   UNL     1      37.664  26.580 104.254  1.00  0.00     0.297 HD
ENDBRANCH  25  27
ENDBRANCH   6  25
TORSDOF 4
ENDMDL
