REMARK SMILES CCOc1cc2ncc(C#N)c(Nc3ccc(OCc4ccccn4)c(Cl)c3)c2cc1NC(=O)/C=C/CN(C)C
REMARK SMILES IDX 7 1 11 2 29 3 12 4 6 5 30 6 31 7 4 8 5 9 9 10 8 11 10 12
REMARK SMILES IDX 13 13 14 15 26 16 28 17 17 18 16 19 15 20 27 21 18 22 19 23
REMARK SMILES IDX 20 24 25 25 21 26 24 27 22 28 23 29 32 30 33 31 34 32 35 34
REMARK SMILES IDX 36 35 37 36 38 37 39 38 40 39 3 40 2 41 1 42
REMARK H PARENT 13 14 32 33
ROOT
ATOM      1  N   UNL     1      -4.251   3.373  -0.904  1.00  0.00    -0.255 NA
ATOM      2  N   UNL     1      -1.002   6.002   1.466  1.00  0.00    -0.192 NA
ATOM      3  C   UNL     1      -2.835   1.704   0.103  1.00  0.00     0.027 A 
ATOM      4  C   UNL     1      -2.055   2.718   0.674  1.00  0.00     0.068 A 
ATOM      5  C   UNL     1      -3.939   2.081  -0.690  1.00  0.00     0.076 A 
ATOM      6  C   UNL     1      -2.538   0.345   0.306  1.00  0.00     0.042 A 
ATOM      7  C   UNL     1      -3.329  -0.643  -0.274  1.00  0.00     0.084 A 
ATOM      8  C   UNL     1      -4.418  -0.278  -1.056  1.00  0.00     0.144 A 
ATOM      9  C   UNL     1      -4.713   1.073  -1.257  1.00  0.00     0.077 A 
ATOM     10  C   UNL     1      -2.375   4.051   0.456  1.00  0.00     0.094 A 
ATOM     11  C   UNL     1      -3.474   4.322  -0.334  1.00  0.00     0.133 A 
ATOM     12  C   UNL     1      -1.617   5.128   1.013  1.00  0.00     0.103 C 
ENDROOT
BRANCH   4  13
ATOM     13  N   UNL     1      -0.932   2.401   1.482  1.00  0.00    -0.354 N 
ATOM     14  H   UNL     1      -1.171   2.300   2.464  1.00  0.00     0.167 HD
BRANCH  13  15
ATOM     15  C   UNL     1       0.422   2.198   1.179  1.00  0.00     0.040 A 
ATOM     16  C   UNL     1       2.220   2.098  -0.441  1.00  0.00     0.085 A 
ATOM     17  C   UNL     1       0.873   2.300  -0.141  1.00  0.00     0.050 A 
ATOM     18  C   UNL     1       3.124   1.792   0.577  1.00  0.00     0.138 A 
ATOM     19  C   UNL     1       2.680   1.688   1.895  1.00  0.00     0.050 A 
ATOM     20  C   UNL     1       1.333   1.890   2.195  1.00  0.00     0.030 A 
ATOM     21  Cl  UNL     1       2.742   2.233  -2.080  1.00  0.00    -0.080 Cl
BRANCH  18  22
ATOM     22  O   UNL     1       4.446   1.590   0.312  1.00  0.00    -0.486 OA
BRANCH  22  23
ATOM     23  C   UNL     1       4.986   0.315   0.654  1.00  0.00     0.285 C 
BRANCH  23  24
ATOM     24  C   UNL     1       6.125   0.003  -0.271  1.00  0.00     0.078 A 
ATOM     25  N   UNL     1       7.348   0.409   0.127  1.00  0.00    -0.258 NA
ATOM     26  C   UNL     1       5.867  -0.668  -1.451  1.00  0.00     0.027 A 
ATOM     27  C   UNL     1       8.370   0.125  -0.710  1.00  0.00     0.111 A 
ATOM     28  C   UNL     1       6.944  -0.943  -2.286  1.00  0.00     0.004 A 
ATOM     29  C   UNL     1       8.223  -0.542  -1.915  1.00  0.00     0.020 A 
ENDBRANCH  23  24
ENDBRANCH  22  23
ENDBRANCH  18  22
ENDBRANCH  13  15
ENDBRANCH   4  13
BRANCH   7  30
ATOM     30  N   UNL     1      -3.018  -1.988  -0.062  1.00  0.00    -0.319 N 
ATOM     31  C   UNL     1      -1.965  -2.521   0.693  1.00  0.00     0.248 C 
ATOM     32  O   UNL     1      -1.111  -1.898   1.313  1.00  0.00    -0.270 OA
ATOM     33  H   UNL     1      -3.646  -2.645  -0.521  1.00  0.00     0.170 HD
BRANCH  31  34
ATOM     34  C   UNL     1      -1.974  -4.014   0.672  1.00  0.00     0.068 C 
ATOM     35  C   UNL     1      -1.041  -4.710   1.337  1.00  0.00    -0.006 C 
BRANCH  35  36
ATOM     36  C   UNL     1      -0.998  -6.208   1.365  1.00  0.00     0.111 C 
BRANCH  36  37
ATOM     37  N   UNL     1       0.276  -6.717   0.869  1.00  0.00    -0.306 NA
ATOM     38  C   UNL     1       0.498  -6.288  -0.512  1.00  0.00     0.105 C 
ATOM     39  C   UNL     1       0.318  -8.177   0.961  1.00  0.00     0.105 C 
ENDBRANCH  36  37
ENDBRANCH  35  36
ENDBRANCH  31  34
ENDBRANCH   7  30
BRANCH   8  40
ATOM     40  O   UNL     1      -5.211  -1.222  -1.638  1.00  0.00    -0.492 OA
BRANCH  40  41
ATOM     41  C   UNL     1      -6.580  -0.881  -1.841  1.00  0.00     0.226 C 
ATOM     42  C   UNL     1      -7.416  -2.142  -1.784  1.00  0.00     0.049 C 
ENDBRANCH  40  41
ENDBRANCH   8  40
TORSDOF 11
