MODEL 1
REMARK VINA RESULT:    -7.379      0.000      0.000
REMARK INTER + INTRA:         -10.883
REMARK INTER:                  -9.752
REMARK INTRA:                  -1.131
REMARK UNBOUND:                -1.131
REMARK SMILES CCCNC(=O)c1nnc2c(-c3c(F)cccc3OC)cccc2c1N
REMARK SMILES IDX 7 1 8 2 9 3 10 4 24 5 25 6 23 7 22 8 21 9 11 10 5 11 4 12
REMARK SMILES IDX 6 13 3 15 2 16 1 17 26 18 12 21 18 22 13 23 17 24 15 25
REMARK SMILES IDX 16 26 14 27 19 28 20 29
REMARK H PARENT 4 14 26 19 26 20
ROOT
ATOM      1  C   UNL     1     142.759  97.168 138.151  1.00  0.00     0.174 A 
ATOM      2  N   UNL     1     141.556  97.656 137.776  1.00  0.00    -0.142 NA
ATOM      3  N   UNL     1     141.248  97.731 136.447  1.00  0.00    -0.149 NA
ATOM      4  C   UNL     1     142.126  97.357 135.493  1.00  0.00     0.103 A 
ATOM      5  C   UNL     1     143.398  96.854 135.853  1.00  0.00     0.028 A 
ATOM      6  C   UNL     1     143.712  96.714 137.232  1.00  0.00     0.075 A 
ATOM      7  C   UNL     1     144.310  96.518 134.823  1.00  0.00     0.013 A 
ATOM      8  C   UNL     1     143.973  96.646 133.480  1.00  0.00     0.002 A 
ATOM      9  C   UNL     1     142.717  97.118 133.135  1.00  0.00     0.011 A 
ATOM     10  C   UNL     1     141.790  97.476 134.130  1.00  0.00     0.017 A 
ENDROOT
BRANCH   1  11
ATOM     11  C   UNL     1     142.971  97.098 139.634  1.00  0.00     0.273 C 
ATOM     12  N   UNL     1     142.005  96.397 140.331  1.00  0.00    -0.351 N 
ATOM     13  O   UNL     1     143.944  97.622 140.171  1.00  0.00    -0.267 OA
ATOM     14  H   UNL     1     141.240  96.000 139.793  1.00  0.00     0.163 HD
BRANCH  12  15
ATOM     15  C   UNL     1     142.019  96.242 141.769  1.00  0.00     0.116 C 
BRANCH  15  16
ATOM     16  C   UNL     1     141.200  97.320 142.477  1.00  0.00     0.018 C 
ATOM     17  C   UNL     1     141.990  98.069 143.540  1.00  0.00     0.006 C 
ENDBRANCH  15  16
ENDBRANCH  12  15
ENDBRANCH   1  11
BRANCH   6  18
ATOM     18  N   UNL     1     145.009  96.298 137.636  1.00  0.00    -0.396 N 
ATOM     19  H   UNL     1     145.723  97.005 137.413  1.00  0.00     0.156 HD
ATOM     20  H   UNL     1     145.068  96.015 138.609  1.00  0.00     0.156 HD
ENDBRANCH   6  18
BRANCH  10  21
ATOM     21  C   UNL     1     140.467  97.983 133.719  1.00  0.00     0.062 A 
ATOM     22  C   UNL     1     139.390  97.114 133.440  1.00  0.00     0.129 A 
ATOM     23  C   UNL     1     140.260  99.364 133.586  1.00  0.00     0.134 A 
ATOM     24  C   UNL     1     138.151  97.642 133.048  1.00  0.00     0.047 A 
ATOM     25  C   UNL     1     139.031  99.885 133.190  1.00  0.00     0.040 A 
ATOM     26  C   UNL     1     137.975  99.023 132.922  1.00  0.00     0.007 A 
ATOM     27  F   UNL     1     141.257 100.222 133.850  1.00  0.00    -0.206 F 
BRANCH  22  28
ATOM     28  O   UNL     1     139.641  95.773 133.596  1.00  0.00    -0.496 OA
ATOM     29  C   UNL     1     139.646  94.969 132.423  1.00  0.00     0.278 C 
ENDBRANCH  22  28
ENDBRANCH  10  21
TORSDOF 6
ENDMDL
MODEL 2
REMARK VINA RESULT:    -7.092      1.649      2.228
REMARK INTER + INTRA:         -10.504
REMARK INTER:                  -9.379
REMARK INTRA:                  -1.125
REMARK UNBOUND:                -1.131
REMARK SMILES CCCNC(=O)c1nnc2c(-c3c(F)cccc3OC)cccc2c1N
REMARK SMILES IDX 7 1 8 2 9 3 10 4 24 5 25 6 23 7 22 8 21 9 11 10 5 11 4 12
REMARK SMILES IDX 6 13 3 15 2 16 1 17 26 18 12 21 18 22 13 23 17 24 15 25
REMARK SMILES IDX 16 26 14 27 19 28 20 29
REMARK H PARENT 4 14 26 19 26 20
ROOT
ATOM      1  C   UNL     1     142.835  96.711 137.689  1.00  0.00     0.174 A 
ATOM      2  N   UNL     1     141.583  96.976 137.256  1.00  0.00    -0.142 NA
ATOM      3  N   UNL     1     141.290  96.836 135.928  1.00  0.00    -0.149 NA
ATOM      4  C   UNL     1     142.227  96.467 135.029  1.00  0.00     0.103 A 
ATOM      5  C   UNL     1     143.550  96.195 135.451  1.00  0.00     0.028 A 
ATOM      6  C   UNL     1     143.857  96.278 136.836  1.00  0.00     0.075 A 
ATOM      7  C   UNL     1     144.517  95.859 134.472  1.00  0.00     0.013 A 
ATOM      8  C   UNL     1     144.189  95.765 133.124  1.00  0.00     0.002 A 
ATOM      9  C   UNL     1     142.886  96.011 132.722  1.00  0.00     0.011 A 
ATOM     10  C   UNL     1     141.902  96.363 133.663  1.00  0.00     0.017 A 
ENDROOT
BRANCH   1  11
ATOM     11  C   UNL     1     143.029  96.862 139.169  1.00  0.00     0.273 C 
ATOM     12  N   UNL     1     142.220  96.059 139.951  1.00  0.00    -0.351 N 
ATOM     13  O   UNL     1     143.860  97.638 139.633  1.00  0.00    -0.267 OA
ATOM     14  H   UNL     1     141.565  95.449 139.469  1.00  0.00     0.163 HD
BRANCH  12  15
ATOM     15  C   UNL     1     142.239  96.080 141.397  1.00  0.00     0.116 C 
BRANCH  15  16
ATOM     16  C   UNL     1     141.095  96.907 141.980  1.00  0.00     0.018 C 
ATOM     17  C   UNL     1     141.489  97.668 143.238  1.00  0.00     0.006 C 
ENDBRANCH  15  16
ENDBRANCH  12  15
ENDBRANCH   1  11
BRANCH   6  18
ATOM     18  N   UNL     1     145.192  96.100 137.290  1.00  0.00    -0.396 N 
ATOM     19  H   UNL     1     145.841  95.934 136.508  1.00  0.00     0.156 HD
ATOM     20  H   UNL     1     145.527  96.847 137.890  1.00  0.00     0.156 HD
ENDBRANCH   6  18
BRANCH  10  21
ATOM     21  C   UNL     1     140.529  96.625 133.191  1.00  0.00     0.062 A 
ATOM     22  C   UNL     1     140.117  97.909 132.772  1.00  0.00     0.129 A 
ATOM     23  C   UNL     1     139.590  95.583 133.165  1.00  0.00     0.134 A 
ATOM     24  C   UNL     1     138.799  98.111 132.336  1.00  0.00     0.047 A 
ATOM     25  C   UNL     1     138.282  95.788 132.737  1.00  0.00     0.040 A 
ATOM     26  C   UNL     1     137.886  97.053 132.322  1.00  0.00     0.007 A 
ATOM     27  F   UNL     1     139.947  94.347 133.548  1.00  0.00    -0.206 F 
BRANCH  22  28
ATOM     28  O   UNL     1     141.076  98.891 132.808  1.00  0.00    -0.496 OA
ATOM     29  C   UNL     1     140.954  99.886 133.816  1.00  0.00     0.278 C 
ENDBRANCH  22  28
ENDBRANCH  10  21
TORSDOF 6
ENDMDL
MODEL 3
REMARK VINA RESULT:    -6.870      1.880      3.567
REMARK INTER + INTRA:         -10.210
REMARK INTER:                  -9.290
REMARK INTRA:                  -0.920
REMARK UNBOUND:                -1.131
REMARK SMILES CCCNC(=O)c1nnc2c(-c3c(F)cccc3OC)cccc2c1N
REMARK SMILES IDX 7 1 8 2 9 3 10 4 24 5 25 6 23 7 22 8 21 9 11 10 5 11 4 12
REMARK SMILES IDX 6 13 3 15 2 16 1 17 26 18 12 21 18 22 13 23 17 24 15 25
REMARK SMILES IDX 16 26 14 27 19 28 20 29
REMARK H PARENT 4 14 26 19 26 20
ROOT
ATOM      1  C   UNL     1     142.176  96.860 138.682  1.00  0.00     0.174 A 
ATOM      2  N   UNL     1     143.160  96.489 137.833  1.00  0.00    -0.142 NA
ATOM      3  N   UNL     1     143.065  96.824 136.512  1.00  0.00    -0.149 NA
ATOM      4  C   UNL     1     141.999  97.491 136.023  1.00  0.00     0.103 A 
ATOM      5  C   UNL     1     140.947  97.881 136.885  1.00  0.00     0.028 A 
ATOM      6  C   UNL     1     141.057  97.594 138.272  1.00  0.00     0.075 A 
ATOM      7  C   UNL     1     139.822  98.537 136.326  1.00  0.00     0.013 A 
ATOM      8  C   UNL     1     139.745  98.824 134.968  1.00  0.00     0.002 A 
ATOM      9  C   UNL     1     140.790  98.459 134.134  1.00  0.00     0.011 A 
ATOM     10  C   UNL     1     141.916  97.793 134.650  1.00  0.00     0.017 A 
ENDROOT
BRANCH   1  11
ATOM     11  C   UNL     1     142.406  96.472 140.113  1.00  0.00     0.273 C 
ATOM     12  N   UNL     1     142.952  97.461 140.908  1.00  0.00    -0.351 N 
ATOM     13  O   UNL     1     142.113  95.354 140.531  1.00  0.00    -0.267 OA
ATOM     14  H   UNL     1     143.157  98.353 140.466  1.00  0.00     0.163 HD
BRANCH  12  15
ATOM     15  C   UNL     1     143.272  97.271 142.306  1.00  0.00     0.116 C 
BRANCH  15  16
ATOM     16  C   UNL     1     142.315  98.024 143.228  1.00  0.00     0.018 C 
ATOM     17  C   UNL     1     142.989  99.152 143.996  1.00  0.00     0.006 C 
ENDBRANCH  15  16
ENDBRANCH  12  15
ENDBRANCH   1  11
BRANCH   6  18
ATOM     18  N   UNL     1     139.984  97.889 139.156  1.00  0.00    -0.396 N 
ATOM     19  H   UNL     1     139.269  97.148 139.147  1.00  0.00     0.156 HD
ATOM     20  H   UNL     1     140.277  98.103 140.103  1.00  0.00     0.156 HD
ENDBRANCH   6  18
BRANCH  10  21
ATOM     21  C   UNL     1     143.001  97.414 133.726  1.00  0.00     0.062 A 
ATOM     22  C   UNL     1     142.981  96.197 133.011  1.00  0.00     0.129 A 
ATOM     23  C   UNL     1     144.099  98.270 133.551  1.00  0.00     0.134 A 
ATOM     24  C   UNL     1     144.039  95.877 132.147  1.00  0.00     0.047 A 
ATOM     25  C   UNL     1     145.151  97.947 132.698  1.00  0.00     0.040 A 
ATOM     26  C   UNL     1     145.120  96.750 131.994  1.00  0.00     0.007 A 
ATOM     27  F   UNL     1     144.151  99.439 134.208  1.00  0.00    -0.206 F 
BRANCH  22  28
ATOM     28  O   UNL     1     141.880  95.400 133.208  1.00  0.00    -0.496 OA
ATOM     29  C   UNL     1     142.085  94.156 133.865  1.00  0.00     0.278 C 
ENDBRANCH  22  28
ENDBRANCH  10  21
TORSDOF 6
ENDMDL
MODEL 4
REMARK VINA RESULT:    -6.800      2.530      4.434
REMARK INTER + INTRA:         -10.117
REMARK INTER:                  -9.134
REMARK INTRA:                  -0.984
REMARK UNBOUND:                -1.131
REMARK SMILES CCCNC(=O)c1nnc2c(-c3c(F)cccc3OC)cccc2c1N
REMARK SMILES IDX 7 1 8 2 9 3 10 4 24 5 25 6 23 7 22 8 21 9 11 10 5 11 4 12
REMARK SMILES IDX 6 13 3 15 2 16 1 17 26 18 12 21 18 22 13 23 17 24 15 25
REMARK SMILES IDX 16 26 14 27 19 28 20 29
REMARK H PARENT 4 14 26 19 26 20
ROOT
ATOM      1  C   UNL     1     142.171  96.741 139.294  1.00  0.00     0.174 A 
ATOM      2  N   UNL     1     143.209  96.184 138.632  1.00  0.00    -0.142 NA
ATOM      3  N   UNL     1     143.225  96.212 137.266  1.00  0.00    -0.149 NA
ATOM      4  C   UNL     1     142.214  96.755 136.555  1.00  0.00     0.103 A 
ATOM      5  C   UNL     1     141.107  97.334 137.220  1.00  0.00     0.028 A 
ATOM      6  C   UNL     1     141.103  97.367 138.640  1.00  0.00     0.075 A 
ATOM      7  C   UNL     1     140.043  97.850 136.439  1.00  0.00     0.013 A 
ATOM      8  C   UNL     1     140.078  97.824 135.050  1.00  0.00     0.002 A 
ATOM      9  C   UNL     1     141.176  97.276 134.406  1.00  0.00     0.011 A 
ATOM     10  C   UNL     1     142.244  96.739 135.147  1.00  0.00     0.017 A 
ENDROOT
BRANCH   1  11
ATOM     11  C   UNL     1     142.281  96.685 140.789  1.00  0.00     0.273 C 
ATOM     12  N   UNL     1     143.259  97.494 141.335  1.00  0.00    -0.351 N 
ATOM     13  O   UNL     1     141.538  95.975 141.462  1.00  0.00    -0.267 OA
ATOM     14  H   UNL     1     143.819  98.046 140.691  1.00  0.00     0.163 HD
BRANCH  12  15
ATOM     15  C   UNL     1     143.537  97.558 142.753  1.00  0.00     0.116 C 
BRANCH  15  16
ATOM     16  C   UNL     1     142.593  98.509 143.487  1.00  0.00     0.018 C 
ATOM     17  C   UNL     1     143.324  99.523 144.356  1.00  0.00     0.006 C 
ENDBRANCH  15  16
ENDBRANCH  12  15
ENDBRANCH   1  11
BRANCH   6  18
ATOM     18  N   UNL     1     139.972  97.858 139.346  1.00  0.00    -0.396 N 
ATOM     19  H   UNL     1     139.103  97.733 138.808  1.00  0.00     0.156 HD
ATOM     20  H   UNL     1     139.877  97.484 140.285  1.00  0.00     0.156 HD
ENDBRANCH   6  18
BRANCH  10  21
ATOM     21  C   UNL     1     143.390  96.157 134.423  1.00  0.00     0.062 A 
ATOM     22  C   UNL     1     144.510  96.932 134.052  1.00  0.00     0.129 A 
ATOM     23  C   UNL     1     143.376  94.798 134.073  1.00  0.00     0.134 A 
ATOM     24  C   UNL     1     145.573  96.335 133.360  1.00  0.00     0.047 A 
ATOM     25  C   UNL     1     144.430  94.210 133.380  1.00  0.00     0.040 A 
ATOM     26  C   UNL     1     145.530  94.979 133.024  1.00  0.00     0.007 A 
ATOM     27  F   UNL     1     142.332  94.027 134.414  1.00  0.00    -0.206 F 
BRANCH  22  28
ATOM     28  O   UNL     1     144.479  98.253 134.427  1.00  0.00    -0.496 OA
ATOM     29  C   UNL     1     144.140  99.207 133.430  1.00  0.00     0.278 C 
ENDBRANCH  22  28
ENDBRANCH  10  21
TORSDOF 6
ENDMDL
MODEL 5
REMARK VINA RESULT:    -6.647      2.262      3.936
REMARK INTER + INTRA:          -9.916
REMARK INTER:                  -9.263
REMARK INTRA:                  -0.653
REMARK UNBOUND:                -1.131
REMARK SMILES CCCNC(=O)c1nnc2c(-c3c(F)cccc3OC)cccc2c1N
REMARK SMILES IDX 7 1 8 2 9 3 10 4 24 5 25 6 23 7 22 8 21 9 11 10 5 11 4 12
REMARK SMILES IDX 6 13 3 15 2 16 1 17 26 18 12 21 18 22 13 23 17 24 15 25
REMARK SMILES IDX 16 26 14 27 19 28 20 29
REMARK H PARENT 4 14 26 19 26 20
ROOT
ATOM      1  C   UNL     1     141.947  96.949 137.371  1.00  0.00     0.174 A 
ATOM      2  N   UNL     1     142.666  96.258 136.458  1.00  0.00    -0.142 NA
ATOM      3  N   UNL     1     142.239  96.219 135.161  1.00  0.00    -0.149 NA
ATOM      4  C   UNL     1     141.100  96.828 134.769  1.00  0.00     0.103 A 
ATOM      5  C   UNL     1     140.320  97.548 135.704  1.00  0.00     0.028 A 
ATOM      6  C   UNL     1     140.781  97.650 137.044  1.00  0.00     0.075 A 
ATOM      7  C   UNL     1     139.106  98.133 135.266  1.00  0.00     0.013 A 
ATOM      8  C   UNL     1     138.686  98.036 133.944  1.00  0.00     0.002 A 
ATOM      9  C   UNL     1     139.467  97.348 133.029  1.00  0.00     0.011 A 
ATOM     10  C   UNL     1     140.670  96.741 133.431  1.00  0.00     0.017 A 
ENDROOT
BRANCH   1  11
ATOM     11  C   UNL     1     142.532  96.954 138.752  1.00  0.00     0.273 C 
ATOM     12  N   UNL     1     141.740  96.375 139.726  1.00  0.00    -0.351 N 
ATOM     13  O   UNL     1     143.641  97.431 138.980  1.00  0.00    -0.267 OA
ATOM     14  H   UNL     1     140.838  96.007 139.434  1.00  0.00     0.163 HD
BRANCH  12  15
ATOM     15  C   UNL     1     142.117  96.307 141.121  1.00  0.00     0.116 C 
BRANCH  15  16
ATOM     16  C   UNL     1     141.022  96.840 142.044  1.00  0.00     0.018 C 
ATOM     17  C   UNL     1     141.567  97.659 143.205  1.00  0.00     0.006 C 
ENDBRANCH  15  16
ENDBRANCH  12  15
ENDBRANCH   1  11
BRANCH   6  18
ATOM     18  N   UNL     1     139.983  98.287 138.033  1.00  0.00    -0.396 N 
ATOM     19  H   UNL     1     138.982  98.251 137.797  1.00  0.00     0.156 HD
ATOM     20  H   UNL     1     140.148  97.950 138.976  1.00  0.00     0.156 HD
ENDBRANCH   6  18
BRANCH  10  21
ATOM     21  C   UNL     1     141.467  96.011 132.427  1.00  0.00     0.062 A 
ATOM     22  C   UNL     1     142.385  96.670 131.581  1.00  0.00     0.129 A 
ATOM     23  C   UNL     1     141.310  94.624 132.287  1.00  0.00     0.134 A 
ATOM     24  C   UNL     1     143.117  95.933 130.638  1.00  0.00     0.047 A 
ATOM     25  C   UNL     1     142.033  93.896 131.346  1.00  0.00     0.040 A 
ATOM     26  C   UNL     1     142.938  94.552 130.521  1.00  0.00     0.007 A 
ATOM     27  F   UNL     1     140.452  93.961 133.079  1.00  0.00    -0.206 F 
BRANCH  22  28
ATOM     28  O   UNL     1     142.509  98.025 131.764  1.00  0.00    -0.496 OA
ATOM     29  C   UNL     1     143.802  98.526 132.074  1.00  0.00     0.278 C 
ENDBRANCH  22  28
ENDBRANCH  10  21
TORSDOF 6
ENDMDL
MODEL 6
REMARK VINA RESULT:    -6.635      2.116      2.596
REMARK INTER + INTRA:          -9.899
REMARK INTER:                  -9.220
REMARK INTRA:                  -0.679
REMARK UNBOUND:                -1.131
REMARK SMILES CCCNC(=O)c1nnc2c(-c3c(F)cccc3OC)cccc2c1N
REMARK SMILES IDX 7 1 8 2 9 3 10 4 24 5 25 6 23 7 22 8 21 9 11 10 5 11 4 12
REMARK SMILES IDX 6 13 3 15 2 16 1 17 26 18 12 21 18 22 13 23 17 24 15 25
REMARK SMILES IDX 16 26 14 27 19 28 20 29
REMARK H PARENT 4 14 26 19 26 20
ROOT
ATOM      1  C   UNL     1     141.678  96.909 139.189  1.00  0.00     0.174 A 
ATOM      2  N   UNL     1     140.962  97.910 138.630  1.00  0.00    -0.142 NA
ATOM      3  N   UNL     1     140.800  97.940 137.273  1.00  0.00    -0.149 NA
ATOM      4  C   UNL     1     141.363  97.013 136.470  1.00  0.00     0.103 A 
ATOM      5  C   UNL     1     142.130  95.961 137.025  1.00  0.00     0.028 A 
ATOM      6  C   UNL     1     142.258  95.880 138.437  1.00  0.00     0.075 A 
ATOM      7  C   UNL     1     142.745  95.036 136.147  1.00  0.00     0.013 A 
ATOM      8  C   UNL     1     142.589  95.124 134.767  1.00  0.00     0.002 A 
ATOM      9  C   UNL     1     141.818  96.144 134.233  1.00  0.00     0.011 A 
ATOM     10  C   UNL     1     141.205  97.091 135.073  1.00  0.00     0.017 A 
ENDROOT
BRANCH   1  11
ATOM     11  C   UNL     1     141.756  96.958 140.686  1.00  0.00     0.273 C 
ATOM     12  N   UNL     1     143.001  97.270 141.199  1.00  0.00    -0.351 N 
ATOM     13  O   UNL     1     140.771  96.745 141.388  1.00  0.00    -0.267 OA
ATOM     14  H   UNL     1     143.751  97.431 140.532  1.00  0.00     0.163 HD
BRANCH  12  15
ATOM     15  C   UNL     1     143.282  97.338 142.616  1.00  0.00     0.116 C 
BRANCH  15  16
ATOM     16  C   UNL     1     143.957  98.650 143.011  1.00  0.00     0.018 C 
ATOM     17  C   UNL     1     143.224  99.389 144.121  1.00  0.00     0.006 C 
ENDBRANCH  15  16
ENDBRANCH  12  15
ENDBRANCH   1  11
BRANCH   6  18
ATOM     18  N   UNL     1     143.091  94.893 139.030  1.00  0.00    -0.396 N 
ATOM     19  H   UNL     1     143.158  94.049 138.444  1.00  0.00     0.156 HD
ATOM     20  H   UNL     1     144.012  95.232 139.288  1.00  0.00     0.156 HD
ENDBRANCH   6  18
BRANCH  10  21
ATOM     21  C   UNL     1     140.400  98.165 134.462  1.00  0.00     0.062 A 
ATOM     22  C   UNL     1     140.968  99.405 134.094  1.00  0.00     0.129 A 
ATOM     23  C   UNL     1     139.028  97.972 134.245  1.00  0.00     0.134 A 
ATOM     24  C   UNL     1     140.161 100.399 133.521  1.00  0.00     0.047 A 
ATOM     25  C   UNL     1     138.228  98.962 133.682  1.00  0.00     0.040 A 
ATOM     26  C   UNL     1     138.796 100.177 133.318  1.00  0.00     0.007 A 
ATOM     27  F   UNL     1     138.454  96.804 134.575  1.00  0.00    -0.206 F 
BRANCH  22  28
ATOM     28  O   UNL     1     142.316  99.540 134.317  1.00  0.00    -0.496 OA
ATOM     29  C   UNL     1     143.183  99.348 133.208  1.00  0.00     0.278 C 
ENDBRANCH  22  28
ENDBRANCH  10  21
TORSDOF 6
ENDMDL
MODEL 7
REMARK VINA RESULT:    -6.607      2.965      4.964
REMARK INTER + INTRA:          -9.863
REMARK INTER:                  -8.773
REMARK INTRA:                  -1.090
REMARK UNBOUND:                -1.131
REMARK SMILES CCCNC(=O)c1nnc2c(-c3c(F)cccc3OC)cccc2c1N
REMARK SMILES IDX 7 1 8 2 9 3 10 4 24 5 25 6 23 7 22 8 21 9 11 10 5 11 4 12
REMARK SMILES IDX 6 13 3 15 2 16 1 17 26 18 12 21 18 22 13 23 17 24 15 25
REMARK SMILES IDX 16 26 14 27 19 28 20 29
REMARK H PARENT 4 14 26 19 26 20
ROOT
ATOM      1  C   UNL     1     143.899  95.759 135.592  1.00  0.00     0.174 A 
ATOM      2  N   UNL     1     143.135  95.670 134.481  1.00  0.00    -0.142 NA
ATOM      3  N   UNL     1     141.914  96.283 134.457  1.00  0.00    -0.149 NA
ATOM      4  C   UNL     1     141.435  96.953 135.526  1.00  0.00     0.103 A 
ATOM      5  C   UNL     1     142.206  97.053 136.708  1.00  0.00     0.028 A 
ATOM      6  C   UNL     1     143.503  96.473 136.729  1.00  0.00     0.075 A 
ATOM      7  C   UNL     1     141.649  97.722 137.825  1.00  0.00     0.013 A 
ATOM      8  C   UNL     1     140.385  98.299 137.775  1.00  0.00     0.002 A 
ATOM      9  C   UNL     1     139.645  98.217 136.606  1.00  0.00     0.011 A 
ATOM     10  C   UNL     1     140.159  97.547 135.482  1.00  0.00     0.017 A 
ENDROOT
BRANCH   1  11
ATOM     11  C   UNL     1     145.233  95.080 135.489  1.00  0.00     0.273 C 
ATOM     12  N   UNL     1     145.188  93.756 135.094  1.00  0.00    -0.351 N 
ATOM     13  O   UNL     1     146.279  95.677 135.729  1.00  0.00    -0.267 OA
ATOM     14  H   UNL     1     144.271  93.355 134.917  1.00  0.00     0.163 HD
BRANCH  12  15
ATOM     15  C   UNL     1     146.364  92.926 134.963  1.00  0.00     0.116 C 
BRANCH  15  16
ATOM     16  C   UNL     1     146.461  91.878 136.070  1.00  0.00     0.018 C 
ATOM     17  C   UNL     1     145.701  90.599 135.751  1.00  0.00     0.006 C 
ENDBRANCH  15  16
ENDBRANCH  12  15
ENDBRANCH   1  11
BRANCH   6  18
ATOM     18  N   UNL     1     144.273  96.473 137.924  1.00  0.00    -0.396 N 
ATOM     19  H   UNL     1     145.041  95.789 137.882  1.00  0.00     0.156 HD
ATOM     20  H   UNL     1     144.614  97.389 138.194  1.00  0.00     0.156 HD
ENDBRANCH   6  18
BRANCH  10  21
ATOM     21  C   UNL     1     139.334  97.474 134.260  1.00  0.00     0.062 A 
ATOM     22  C   UNL     1     139.340  98.504 133.295  1.00  0.00     0.129 A 
ATOM     23  C   UNL     1     138.505  96.363 134.044  1.00  0.00     0.134 A 
ATOM     24  C   UNL     1     138.535  98.393 132.151  1.00  0.00     0.047 A 
ATOM     25  C   UNL     1     137.703  96.258 132.911  1.00  0.00     0.040 A 
ATOM     26  C   UNL     1     137.718  97.274 131.963  1.00  0.00     0.007 A 
ATOM     27  F   UNL     1     138.478  95.360 134.935  1.00  0.00    -0.206 F 
BRANCH  22  28
ATOM     28  O   UNL     1     140.175  99.564 133.549  1.00  0.00    -0.496 OA
ATOM     29  C   UNL     1     139.620 100.869 133.457  1.00  0.00     0.278 C 
ENDBRANCH  22  28
ENDBRANCH  10  21
TORSDOF 6
ENDMDL
MODEL 8
REMARK VINA RESULT:    -6.527      3.830      6.174
REMARK INTER + INTRA:          -9.757
REMARK INTER:                  -8.712
REMARK INTRA:                  -1.045
REMARK UNBOUND:                -1.131
REMARK SMILES CCCNC(=O)c1nnc2c(-c3c(F)cccc3OC)cccc2c1N
REMARK SMILES IDX 7 1 8 2 9 3 10 4 24 5 25 6 23 7 22 8 21 9 11 10 5 11 4 12
REMARK SMILES IDX 6 13 3 15 2 16 1 17 26 18 12 21 18 22 13 23 17 24 15 25
REMARK SMILES IDX 16 26 14 27 19 28 20 29
REMARK H PARENT 4 14 26 19 26 20
ROOT
ATOM      1  C   UNL     1     142.945  96.195 137.929  1.00  0.00     0.174 A 
ATOM      2  N   UNL     1     144.286  96.193 138.095  1.00  0.00    -0.142 NA
ATOM      3  N   UNL     1     145.084  95.713 137.096  1.00  0.00    -0.149 NA
ATOM      4  C   UNL     1     144.568  95.209 135.955  1.00  0.00     0.103 A 
ATOM      5  C   UNL     1     143.167  95.185 135.757  1.00  0.00     0.028 A 
ATOM      6  C   UNL     1     142.326  95.736 136.760  1.00  0.00     0.075 A 
ATOM      7  C   UNL     1     142.661  94.605 134.568  1.00  0.00     0.013 A 
ATOM      8  C   UNL     1     143.506  94.089 133.591  1.00  0.00     0.002 A 
ATOM      9  C   UNL     1     144.878  94.137 133.782  1.00  0.00     0.011 A 
ATOM     10  C   UNL     1     145.416  94.691 134.957  1.00  0.00     0.017 A 
ENDROOT
BRANCH   1  11
ATOM     11  C   UNL     1     142.174  96.780 139.075  1.00  0.00     0.273 C 
ATOM     12  N   UNL     1     142.626  96.421 140.330  1.00  0.00    -0.351 N 
ATOM     13  O   UNL     1     141.221  97.533 138.891  1.00  0.00    -0.267 OA
ATOM     14  H   UNL     1     143.425  95.793 140.374  1.00  0.00     0.163 HD
BRANCH  12  15
ATOM     15  C   UNL     1     141.999  96.860 141.557  1.00  0.00     0.116 C 
BRANCH  15  16
ATOM     16  C   UNL     1     142.991  97.522 142.511  1.00  0.00     0.018 C 
ATOM     17  C   UNL     1     142.315  98.296 143.634  1.00  0.00     0.006 C 
ENDBRANCH  15  16
ENDBRANCH  12  15
ENDBRANCH   1  11
BRANCH   6  18
ATOM     18  N   UNL     1     140.912  95.651 136.641  1.00  0.00    -0.396 N 
ATOM     19  H   UNL     1     140.435  96.243 137.335  1.00  0.00     0.156 HD
ATOM     20  H   UNL     1     140.565  95.833 135.705  1.00  0.00     0.156 HD
ENDBRANCH   6  18
BRANCH  10  21
ATOM     21  C   UNL     1     146.882  94.714 135.124  1.00  0.00     0.062 A 
ATOM     22  C   UNL     1     147.677  95.749 134.586  1.00  0.00     0.129 A 
ATOM     23  C   UNL     1     147.520  93.679 135.824  1.00  0.00     0.134 A 
ATOM     24  C   UNL     1     149.068  95.725 134.767  1.00  0.00     0.047 A 
ATOM     25  C   UNL     1     148.901  93.655 135.996  1.00  0.00     0.040 A 
ATOM     26  C   UNL     1     149.676  94.679 135.468  1.00  0.00     0.007 A 
ATOM     27  F   UNL     1     146.796  92.681 136.356  1.00  0.00    -0.206 F 
BRANCH  22  28
ATOM     28  O   UNL     1     147.004  96.743 133.920  1.00  0.00    -0.496 OA
ATOM     29  C   UNL     1     147.492  97.116 132.638  1.00  0.00     0.278 C 
ENDBRANCH  22  28
ENDBRANCH  10  21
TORSDOF 6
ENDMDL
MODEL 9
REMARK VINA RESULT:    -6.480      2.851      5.209
REMARK INTER + INTRA:          -9.695
REMARK INTER:                  -8.591
REMARK INTRA:                  -1.104
REMARK UNBOUND:                -1.131
REMARK SMILES CCCNC(=O)c1nnc2c(-c3c(F)cccc3OC)cccc2c1N
REMARK SMILES IDX 7 1 8 2 9 3 10 4 24 5 25 6 23 7 22 8 21 9 11 10 5 11 4 12
REMARK SMILES IDX 6 13 3 15 2 16 1 17 26 18 12 21 18 22 13 23 17 24 15 25
REMARK SMILES IDX 16 26 14 27 19 28 20 29
REMARK H PARENT 4 14 26 19 26 20
ROOT
ATOM      1  C   UNL     1     144.001  95.912 135.697  1.00  0.00     0.174 A 
ATOM      2  N   UNL     1     143.274  95.795 134.563  1.00  0.00    -0.142 NA
ATOM      3  N   UNL     1     142.033  96.364 134.502  1.00  0.00    -0.149 NA
ATOM      4  C   UNL     1     141.498  97.016 135.556  1.00  0.00     0.103 A 
ATOM      5  C   UNL     1     142.230  97.144 136.760  1.00  0.00     0.028 A 
ATOM      6  C   UNL     1     143.545  96.611 136.820  1.00  0.00     0.075 A 
ATOM      7  C   UNL     1     141.615  97.793 137.859  1.00  0.00     0.013 A 
ATOM      8  C   UNL     1     140.333  98.324 137.770  1.00  0.00     0.002 A 
ATOM      9  C   UNL     1     139.632  98.215 136.580  1.00  0.00     0.011 A 
ATOM     10  C   UNL     1     140.203  97.563 135.472  1.00  0.00     0.017 A 
ENDROOT
BRANCH   1  11
ATOM     11  C   UNL     1     145.361  95.282 135.634  1.00  0.00     0.273 C 
ATOM     12  N   UNL     1     146.192  95.779 134.649  1.00  0.00    -0.351 N 
ATOM     13  O   UNL     1     145.697  94.399 136.419  1.00  0.00    -0.267 OA
ATOM     14  H   UNL     1     145.819  96.513 134.052  1.00  0.00     0.163 HD
BRANCH  12  15
ATOM     15  C   UNL     1     147.530  95.283 134.412  1.00  0.00     0.116 C 
BRANCH  15  16
ATOM     16  C   UNL     1     148.241  96.041 133.293  1.00  0.00     0.018 C 
ATOM     17  C   UNL     1     147.390  97.148 132.688  1.00  0.00     0.006 C 
ENDBRANCH  15  16
ENDBRANCH  12  15
ENDBRANCH   1  11
BRANCH   6  18
ATOM     18  N   UNL     1     144.278  96.639 138.038  1.00  0.00    -0.396 N 
ATOM     19  H   UNL     1     144.453  97.603 138.355  1.00  0.00     0.156 HD
ATOM     20  H   UNL     1     143.869  96.080 138.779  1.00  0.00     0.156 HD
ENDBRANCH   6  18
BRANCH  10  21
ATOM     21  C   UNL     1     139.419  97.461 134.227  1.00  0.00     0.062 A 
ATOM     22  C   UNL     1     139.470  98.458 133.229  1.00  0.00     0.129 A 
ATOM     23  C   UNL     1     138.583  96.354 134.018  1.00  0.00     0.134 A 
ATOM     24  C   UNL     1     138.702  98.319 132.064  1.00  0.00     0.047 A 
ATOM     25  C   UNL     1     137.817  96.221 132.863  1.00  0.00     0.040 A 
ATOM     26  C   UNL     1     137.877  97.205 131.884  1.00  0.00     0.007 A 
ATOM     27  F   UNL     1     138.513  95.381 134.940  1.00  0.00    -0.206 F 
BRANCH  22  28
ATOM     28  O   UNL     1     140.310  99.516 133.476  1.00  0.00    -0.496 OA
ATOM     29  C   UNL     1     139.777 100.824 133.318  1.00  0.00     0.278 C 
ENDBRANCH  22  28
ENDBRANCH  10  21
TORSDOF 6
ENDMDL
MODEL 10
REMARK VINA RESULT:    -6.405      2.372      4.298
REMARK INTER + INTRA:          -9.596
REMARK INTER:                  -8.460
REMARK INTRA:                  -1.136
REMARK UNBOUND:                -1.131
REMARK SMILES CCCNC(=O)c1nnc2c(-c3c(F)cccc3OC)cccc2c1N
REMARK SMILES IDX 7 1 8 2 9 3 10 4 24 5 25 6 23 7 22 8 21 9 11 10 5 11 4 12
REMARK SMILES IDX 6 13 3 15 2 16 1 17 26 18 12 21 18 22 13 23 17 24 15 25
REMARK SMILES IDX 16 26 14 27 19 28 20 29
REMARK H PARENT 4 14 26 19 26 20
ROOT
ATOM      1  C   UNL     1     143.995  96.181 136.489  1.00  0.00     0.174 A 
ATOM      2  N   UNL     1     143.636  96.242 135.188  1.00  0.00    -0.142 NA
ATOM      3  N   UNL     1     142.471  96.866 134.843  1.00  0.00    -0.149 NA
ATOM      4  C   UNL     1     141.649  97.399 135.771  1.00  0.00     0.103 A 
ATOM      5  C   UNL     1     141.992  97.340 137.143  1.00  0.00     0.028 A 
ATOM      6  C   UNL     1     143.229  96.748 137.514  1.00  0.00     0.075 A 
ATOM      7  C   UNL     1     141.081  97.868 138.091  1.00  0.00     0.013 A 
ATOM      8  C   UNL     1     139.884  98.460 137.703  1.00  0.00     0.002 A 
ATOM      9  C   UNL     1     139.567  98.535 136.356  1.00  0.00     0.011 A 
ATOM     10  C   UNL     1     140.439  98.008 135.387  1.00  0.00     0.017 A 
ENDROOT
BRANCH   1  11
ATOM     11  C   UNL     1     145.311  95.507 136.744  1.00  0.00     0.273 C 
ATOM     12  N   UNL     1     145.539  94.367 135.996  1.00  0.00    -0.351 N 
ATOM     13  O   UNL     1     146.118  95.957 137.553  1.00  0.00    -0.267 OA
ATOM     14  H   UNL     1     144.807  94.079 135.352  1.00  0.00     0.163 HD
BRANCH  12  15
ATOM     15  C   UNL     1     146.735  93.563 136.118  1.00  0.00     0.116 C 
BRANCH  15  16
ATOM     16  C   UNL     1     146.485  92.095 135.781  1.00  0.00     0.018 C 
ATOM     17  C   UNL     1     145.192  91.871 135.010  1.00  0.00     0.006 C 
ENDBRANCH  15  16
ENDBRANCH  12  15
ENDBRANCH   1  11
BRANCH   6  18
ATOM     18  N   UNL     1     143.568  96.589 138.885  1.00  0.00    -0.396 N 
ATOM     19  H   UNL     1     143.844  95.620 139.099  1.00  0.00     0.156 HD
ATOM     20  H   UNL     1     144.264  97.249 139.217  1.00  0.00     0.156 HD
ENDBRANCH   6  18
BRANCH  10  21
ATOM     21  C   UNL     1     140.058  98.100 133.964  1.00  0.00     0.062 A 
ATOM     22  C   UNL     1     139.417  97.036 133.294  1.00  0.00     0.129 A 
ATOM     23  C   UNL     1     140.346  99.266 133.240  1.00  0.00     0.134 A 
ATOM     24  C   UNL     1     139.079  97.168 131.939  1.00  0.00     0.047 A 
ATOM     25  C   UNL     1     140.015  99.392 131.894  1.00  0.00     0.040 A 
ATOM     26  C   UNL     1     139.380  98.342 131.242  1.00  0.00     0.007 A 
ATOM     27  F   UNL     1     140.949 100.302 133.844  1.00  0.00    -0.206 F 
BRANCH  22  28
ATOM     28  O   UNL     1     139.148  95.921 134.049  1.00  0.00    -0.496 OA
ATOM     29  C   UNL     1     139.827  94.721 133.706  1.00  0.00     0.278 C 
ENDBRANCH  22  28
ENDBRANCH  10  21
TORSDOF 6
ENDMDL
MODEL 11
REMARK VINA RESULT:    -6.370      3.924      6.485
REMARK INTER + INTRA:          -9.550
REMARK INTER:                  -8.707
REMARK INTRA:                  -0.842
REMARK UNBOUND:                -1.131
REMARK SMILES CCCNC(=O)c1nnc2c(-c3c(F)cccc3OC)cccc2c1N
REMARK SMILES IDX 7 1 8 2 9 3 10 4 24 5 25 6 23 7 22 8 21 9 11 10 5 11 4 12
REMARK SMILES IDX 6 13 3 15 2 16 1 17 26 18 12 21 18 22 13 23 17 24 15 25
REMARK SMILES IDX 16 26 14 27 19 28 20 29
REMARK H PARENT 4 14 26 19 26 20
ROOT
ATOM      1  C   UNL     1     145.151  98.590 142.311  1.00  0.00     0.174 A 
ATOM      2  N   UNL     1     145.277  98.434 140.975  1.00  0.00    -0.142 NA
ATOM      3  N   UNL     1     144.232  97.918 140.260  1.00  0.00    -0.149 NA
ATOM      4  C   UNL     1     143.086  97.531 140.857  1.00  0.00     0.103 A 
ATOM      5  C   UNL     1     142.930  97.670 142.256  1.00  0.00     0.028 A 
ATOM      6  C   UNL     1     143.982  98.260 143.007  1.00  0.00     0.075 A 
ATOM      7  C   UNL     1     141.731  97.208 142.853  1.00  0.00     0.013 A 
ATOM      8  C   UNL     1     140.706  96.651 142.096  1.00  0.00     0.002 A 
ATOM      9  C   UNL     1     140.857  96.540 140.723  1.00  0.00     0.011 A 
ATOM     10  C   UNL     1     142.040  96.973 140.097  1.00  0.00     0.017 A 
ENDROOT
BRANCH   1  11
ATOM     11  C   UNL     1     146.346  99.199 142.984  1.00  0.00     0.273 C 
ATOM     12  N   UNL     1     146.518 100.552 142.758  1.00  0.00    -0.351 N 
ATOM     13  O   UNL     1     147.097  98.532 143.690  1.00  0.00    -0.267 OA
ATOM     14  H   UNL     1     145.839 101.014 142.159  1.00  0.00     0.163 HD
BRANCH  12  15
ATOM     15  C   UNL     1     147.624 101.313 143.297  1.00  0.00     0.116 C 
BRANCH  15  16
ATOM     16  C   UNL     1     147.423 101.666 144.769  1.00  0.00     0.018 C 
ATOM     17  C   UNL     1     148.611 101.287 145.642  1.00  0.00     0.006 C 
ENDBRANCH  15  16
ENDBRANCH  12  15
ENDBRANCH   1  11
BRANCH   6  18
ATOM     18  N   UNL     1     143.902  98.336 144.423  1.00  0.00    -0.396 N 
ATOM     19  H   UNL     1     143.922  97.402 144.857  1.00  0.00     0.156 HD
ATOM     20  H   UNL     1     144.593  98.948 144.844  1.00  0.00     0.156 HD
ENDBRANCH   6  18
BRANCH  10  21
ATOM     21  C   UNL     1     142.163  96.827 138.634  1.00  0.00     0.062 A 
ATOM     22  C   UNL     1     141.486  97.683 137.740  1.00  0.00     0.129 A 
ATOM     23  C   UNL     1     142.963  95.806 138.100  1.00  0.00     0.134 A 
ATOM     24  C   UNL     1     141.630  97.503 136.356  1.00  0.00     0.047 A 
ATOM     25  C   UNL     1     143.100  95.625 136.727  1.00  0.00     0.040 A 
ATOM     26  C   UNL     1     142.434  96.475 135.854  1.00  0.00     0.007 A 
ATOM     27  F   UNL     1     143.630  94.976 138.919  1.00  0.00    -0.206 F 
BRANCH  22  28
ATOM     28  O   UNL     1     140.724  98.673 138.312  1.00  0.00    -0.496 OA
ATOM     29  C   UNL     1     139.332  98.674 138.025  1.00  0.00     0.278 C 
ENDBRANCH  22  28
ENDBRANCH  10  21
TORSDOF 6
ENDMDL
MODEL 12
REMARK VINA RESULT:    -6.256      3.587      5.968
REMARK INTER + INTRA:          -9.398
REMARK INTER:                  -8.361
REMARK INTRA:                  -1.037
REMARK UNBOUND:                -1.131
REMARK SMILES CCCNC(=O)c1nnc2c(-c3c(F)cccc3OC)cccc2c1N
REMARK SMILES IDX 7 1 8 2 9 3 10 4 24 5 25 6 23 7 22 8 21 9 11 10 5 11 4 12
REMARK SMILES IDX 6 13 3 15 2 16 1 17 26 18 12 21 18 22 13 23 17 24 15 25
REMARK SMILES IDX 16 26 14 27 19 28 20 29
REMARK H PARENT 4 14 26 19 26 20
ROOT
ATOM      1  C   UNL     1     142.936  96.139 137.825  1.00  0.00     0.174 A 
ATOM      2  N   UNL     1     144.282  96.202 137.934  1.00  0.00    -0.142 NA
ATOM      3  N   UNL     1     145.059  95.738 136.911  1.00  0.00    -0.149 NA
ATOM      4  C   UNL     1     144.520  95.188 135.803  1.00  0.00     0.103 A 
ATOM      5  C   UNL     1     143.115  95.097 135.665  1.00  0.00     0.028 A 
ATOM      6  C   UNL     1     142.291  95.629 136.693  1.00  0.00     0.075 A 
ATOM      7  C   UNL     1     142.587  94.470 134.509  1.00  0.00     0.013 A 
ATOM      8  C   UNL     1     143.413  93.973 133.507  1.00  0.00     0.002 A 
ATOM      9  C   UNL     1     144.788  94.088 133.638  1.00  0.00     0.011 A 
ATOM     10  C   UNL     1     145.349  94.689 134.779  1.00  0.00     0.017 A 
ENDROOT
BRANCH   1  11
ATOM     11  C   UNL     1     142.187  96.712 138.992  1.00  0.00     0.273 C 
ATOM     12  N   UNL     1     142.658  96.333 140.234  1.00  0.00    -0.351 N 
ATOM     13  O   UNL     1     141.235  97.472 138.834  1.00  0.00    -0.267 OA
ATOM     14  H   UNL     1     143.455  95.701 140.257  1.00  0.00     0.163 HD
BRANCH  12  15
ATOM     15  C   UNL     1     142.054  96.758 141.478  1.00  0.00     0.116 C 
BRANCH  15  16
ATOM     16  C   UNL     1     143.032  97.524 142.366  1.00  0.00     0.018 C 
ATOM     17  C   UNL     1     142.350  98.251 143.516  1.00  0.00     0.006 C 
ENDBRANCH  15  16
ENDBRANCH  12  15
ENDBRANCH   1  11
BRANCH   6  18
ATOM     18  N   UNL     1     140.879  95.477 136.635  1.00  0.00    -0.396 N 
ATOM     19  H   UNL     1     140.456  95.487 137.574  1.00  0.00     0.156 HD
ATOM     20  H   UNL     1     140.417  96.140 136.020  1.00  0.00     0.156 HD
ENDBRANCH   6  18
BRANCH  10  21
ATOM     21  C   UNL     1     146.817  94.782 134.884  1.00  0.00     0.062 A 
ATOM     22  C   UNL     1     147.573  93.847 135.623  1.00  0.00     0.129 A 
ATOM     23  C   UNL     1     147.496  95.831 134.247  1.00  0.00     0.134 A 
ATOM     24  C   UNL     1     148.967  93.979 135.698  1.00  0.00     0.047 A 
ATOM     25  C   UNL     1     148.879  95.964 134.327  1.00  0.00     0.040 A 
ATOM     26  C   UNL     1     149.616  95.036 135.053  1.00  0.00     0.007 A 
ATOM     27  F   UNL     1     146.814  96.736 133.528  1.00  0.00    -0.206 F 
BRANCH  22  28
ATOM     28  O   UNL     1     146.862  92.834 136.219  1.00  0.00    -0.496 OA
ATOM     29  C   UNL     1     147.132  91.506 135.788  1.00  0.00     0.278 C 
ENDBRANCH  22  28
ENDBRANCH  10  21
TORSDOF 6
ENDMDL
MODEL 13
REMARK VINA RESULT:    -6.145      4.075      7.211
REMARK INTER + INTRA:          -9.252
REMARK INTER:                  -8.642
REMARK INTRA:                  -0.610
REMARK UNBOUND:                -1.131
REMARK SMILES CCCNC(=O)c1nnc2c(-c3c(F)cccc3OC)cccc2c1N
REMARK SMILES IDX 7 1 8 2 9 3 10 4 24 5 25 6 23 7 22 8 21 9 11 10 5 11 4 12
REMARK SMILES IDX 6 13 3 15 2 16 1 17 26 18 12 21 18 22 13 23 17 24 15 25
REMARK SMILES IDX 16 26 14 27 19 28 20 29
REMARK H PARENT 4 14 26 19 26 20
ROOT
ATOM      1  C   UNL     1     144.888  98.846 143.091  1.00  0.00     0.174 A 
ATOM      2  N   UNL     1     144.974  98.492 141.790  1.00  0.00    -0.142 NA
ATOM      3  N   UNL     1     143.916  97.865 141.196  1.00  0.00    -0.149 NA
ATOM      4  C   UNL     1     142.794  97.560 141.881  1.00  0.00     0.103 A 
ATOM      5  C   UNL     1     142.680  97.907 143.248  1.00  0.00     0.028 A 
ATOM      6  C   UNL     1     143.746  98.613 143.866  1.00  0.00     0.075 A 
ATOM      7  C   UNL     1     141.507  97.527 143.947  1.00  0.00     0.013 A 
ATOM      8  C   UNL     1     140.468  96.853 143.316  1.00  0.00     0.002 A 
ATOM      9  C   UNL     1     140.577  96.538 141.971  1.00  0.00     0.011 A 
ATOM     10  C   UNL     1     141.733  96.884 141.249  1.00  0.00     0.017 A 
ENDROOT
BRANCH   1  11
ATOM     11  C   UNL     1     146.093  99.562 143.625  1.00  0.00     0.273 C 
ATOM     12  N   UNL     1     145.846 100.819 144.145  1.00  0.00    -0.351 N 
ATOM     13  O   UNL     1     147.209  99.048 143.604  1.00  0.00    -0.267 OA
ATOM     14  H   UNL     1     144.887 101.153 144.117  1.00  0.00     0.163 HD
BRANCH  12  15
ATOM     15  C   UNL     1     146.882 101.675 144.681  1.00  0.00     0.116 C 
BRANCH  15  16
ATOM     16  C   UNL     1     147.537 102.537 143.604  1.00  0.00     0.018 C 
ATOM     17  C   UNL     1     148.982 102.149 143.325  1.00  0.00     0.006 C 
ENDBRANCH  15  16
ENDBRANCH  12  15
ENDBRANCH   1  11
BRANCH   6  18
ATOM     18  N   UNL     1     143.709  98.900 145.258  1.00  0.00    -0.396 N 
ATOM     19  H   UNL     1     143.832  99.905 145.443  1.00  0.00     0.156 HD
ATOM     20  H   UNL     1     142.887  98.540 145.732  1.00  0.00     0.156 HD
ENDBRANCH   6  18
BRANCH  10  21
ATOM     21  C   UNL     1     141.814  96.521 139.821  1.00  0.00     0.062 A 
ATOM     22  C   UNL     1     142.388  95.305 139.392  1.00  0.00     0.129 A 
ATOM     23  C   UNL     1     141.321  97.404 138.848  1.00  0.00     0.134 A 
ATOM     24  C   UNL     1     142.447  95.006 138.023  1.00  0.00     0.047 A 
ATOM     25  C   UNL     1     141.386  97.107 137.490  1.00  0.00     0.040 A 
ATOM     26  C   UNL     1     141.949  95.906 137.077  1.00  0.00     0.007 A 
ATOM     27  F   UNL     1     140.761  98.566 139.218  1.00  0.00    -0.206 F 
BRANCH  22  28
ATOM     28  O   UNL     1     142.846  94.471 140.383  1.00  0.00    -0.496 OA
ATOM     29  C   UNL     1     141.977  93.433 140.815  1.00  0.00     0.278 C 
ENDBRANCH  22  28
ENDBRANCH  10  21
TORSDOF 6
ENDMDL
MODEL 14
REMARK VINA RESULT:    -6.096      2.619      4.867
REMARK INTER + INTRA:          -9.187
REMARK INTER:                  -8.097
REMARK INTRA:                  -1.090
REMARK UNBOUND:                -1.131
REMARK SMILES CCCNC(=O)c1nnc2c(-c3c(F)cccc3OC)cccc2c1N
REMARK SMILES IDX 7 1 8 2 9 3 10 4 24 5 25 6 23 7 22 8 21 9 11 10 5 11 4 12
REMARK SMILES IDX 6 13 3 15 2 16 1 17 26 18 12 21 18 22 13 23 17 24 15 25
REMARK SMILES IDX 16 26 14 27 19 28 20 29
REMARK H PARENT 4 14 26 19 26 20
ROOT
ATOM      1  C   UNL     1     143.936  96.112 135.352  1.00  0.00     0.174 A 
ATOM      2  N   UNL     1     143.428  96.344 134.121  1.00  0.00    -0.142 NA
ATOM      3  N   UNL     1     142.258  97.040 134.000  1.00  0.00    -0.149 NA
ATOM      4  C   UNL     1     141.577  97.478 135.079  1.00  0.00     0.103 A 
ATOM      5  C   UNL     1     142.077  97.239 136.381  1.00  0.00     0.028 A 
ATOM      6  C   UNL     1     143.322  96.570 136.524  1.00  0.00     0.075 A 
ATOM      7  C   UNL     1     141.309  97.671 137.491  1.00  0.00     0.013 A 
ATOM      8  C   UNL     1     140.102  98.341 137.327  1.00  0.00     0.002 A 
ATOM      9  C   UNL     1     139.630  98.592 136.048  1.00  0.00     0.011 A 
ATOM     10  C   UNL     1     140.357  98.163 134.922  1.00  0.00     0.017 A 
ENDROOT
BRANCH   1  11
ATOM     11  C   UNL     1     145.241  95.374 135.360  1.00  0.00     0.273 C 
ATOM     12  N   UNL     1     146.275  96.005 134.694  1.00  0.00    -0.351 N 
ATOM     13  O   UNL     1     145.366  94.295 135.932  1.00  0.00    -0.267 OA
ATOM     14  H   UNL     1     146.069  96.898 134.255  1.00  0.00     0.163 HD
BRANCH  12  15
ATOM     15  C   UNL     1     147.601  95.441 134.568  1.00  0.00     0.116 C 
BRANCH  15  16
ATOM     16  C   UNL     1     148.287  95.857 133.269  1.00  0.00     0.018 C 
ATOM     17  C   UNL     1     147.756  97.167 132.706  1.00  0.00     0.006 C 
ENDBRANCH  15  16
ENDBRANCH  12  15
ENDBRANCH   1  11
BRANCH   6  18
ATOM     18  N   UNL     1     143.814  96.232 137.813  1.00  0.00    -0.396 N 
ATOM     19  H   UNL     1     143.104  95.744 138.377  1.00  0.00     0.156 HD
ATOM     20  H   UNL     1     144.688  95.715 137.799  1.00  0.00     0.156 HD
ENDBRANCH   6  18
BRANCH  10  21
ATOM     21  C   UNL     1     139.814  98.442 133.579  1.00  0.00     0.062 A 
ATOM     22  C   UNL     1     139.013  97.506 132.890  1.00  0.00     0.129 A 
ATOM     23  C   UNL     1     140.104  99.662 132.949  1.00  0.00     0.134 A 
ATOM     24  C   UNL     1     138.524  97.814 131.612  1.00  0.00     0.047 A 
ATOM     25  C   UNL     1     139.623  99.962 131.679  1.00  0.00     0.040 A 
ATOM     26  C   UNL     1     138.831  99.038 131.009  1.00  0.00     0.007 A 
ATOM     27  F   UNL     1     140.856 100.580 133.576  1.00  0.00    -0.206 F 
BRANCH  22  28
ATOM     28  O   UNL     1     138.750  96.333 133.553  1.00  0.00    -0.496 OA
ATOM     29  C   UNL     1     137.419  96.123 134.004  1.00  0.00     0.278 C 
ENDBRANCH  22  28
ENDBRANCH  10  21
TORSDOF 6
ENDMDL
MODEL 15
REMARK VINA RESULT:    -6.046      3.276      5.787
REMARK INTER + INTRA:          -9.121
REMARK INTER:                  -8.045
REMARK INTRA:                  -1.076
REMARK UNBOUND:                -1.131
REMARK SMILES CCCNC(=O)c1nnc2c(-c3c(F)cccc3OC)cccc2c1N
REMARK SMILES IDX 7 1 8 2 9 3 10 4 24 5 25 6 23 7 22 8 21 9 11 10 5 11 4 12
REMARK SMILES IDX 6 13 3 15 2 16 1 17 26 18 12 21 18 22 13 23 17 24 15 25
REMARK SMILES IDX 16 26 14 27 19 28 20 29
REMARK H PARENT 4 14 26 19 26 20
ROOT
ATOM      1  C   UNL     1     142.623  96.624 138.726  1.00  0.00     0.174 A 
ATOM      2  N   UNL     1     143.440  95.548 138.770  1.00  0.00    -0.142 NA
ATOM      3  N   UNL     1     144.099  95.162 137.637  1.00  0.00    -0.149 NA
ATOM      4  C   UNL     1     143.935  95.808 136.464  1.00  0.00     0.103 A 
ATOM      5  C   UNL     1     143.077  96.930 136.384  1.00  0.00     0.028 A 
ATOM      6  C   UNL     1     142.430  97.382 137.565  1.00  0.00     0.075 A 
ATOM      7  C   UNL     1     142.893  97.553 135.124  1.00  0.00     0.013 A 
ATOM      8  C   UNL     1     143.552  97.104 133.985  1.00  0.00     0.002 A 
ATOM      9  C   UNL     1     144.409  96.019 134.077  1.00  0.00     0.011 A 
ATOM     10  C   UNL     1     144.604  95.366 135.307  1.00  0.00     0.017 A 
ENDROOT
BRANCH   1  11
ATOM     11  C   UNL     1     141.983  96.977 140.036  1.00  0.00     0.273 C 
ATOM     12  N   UNL     1     142.843  97.010 141.117  1.00  0.00    -0.351 N 
ATOM     13  O   UNL     1     140.783  97.227 140.119  1.00  0.00    -0.267 OA
ATOM     14  H   UNL     1     143.819  96.788 140.942  1.00  0.00     0.163 HD
BRANCH  12  15
ATOM     15  C   UNL     1     142.411  97.302 142.467  1.00  0.00     0.116 C 
BRANCH  15  16
ATOM     16  C   UNL     1     143.471  98.060 143.263  1.00  0.00     0.018 C 
ATOM     17  C   UNL     1     142.905  99.242 144.037  1.00  0.00     0.006 C 
ENDBRANCH  15  16
ENDBRANCH  12  15
ENDBRANCH   1  11
BRANCH   6  18
ATOM     18  N   UNL     1     141.492  98.448 137.509  1.00  0.00    -0.396 N 
ATOM     19  H   UNL     1     141.766  99.230 138.121  1.00  0.00     0.156 HD
ATOM     20  H   UNL     1     141.292  98.774 136.569  1.00  0.00     0.156 HD
ENDBRANCH   6  18
BRANCH  10  21
ATOM     21  C   UNL     1     145.518  94.208 135.358  1.00  0.00     0.062 A 
ATOM     22  C   UNL     1     146.855  94.333 135.795  1.00  0.00     0.129 A 
ATOM     23  C   UNL     1     145.065  92.944 134.954  1.00  0.00     0.134 A 
ATOM     24  C   UNL     1     147.687  93.204 135.822  1.00  0.00     0.047 A 
ATOM     25  C   UNL     1     145.895  91.827 134.976  1.00  0.00     0.040 A 
ATOM     26  C   UNL     1     147.208  91.957 135.412  1.00  0.00     0.007 A 
ATOM     27  F   UNL     1     143.798  92.784 134.539  1.00  0.00    -0.206 F 
BRANCH  22  28
ATOM     28  O   UNL     1     147.246  95.588 136.190  1.00  0.00    -0.496 OA
ATOM     29  C   UNL     1     147.832  95.714 137.479  1.00  0.00     0.278 C 
ENDBRANCH  22  28
ENDBRANCH  10  21
TORSDOF 6
ENDMDL
MODEL 16
REMARK VINA RESULT:    -6.042      3.705      6.293
REMARK INTER + INTRA:          -9.116
REMARK INTER:                  -8.549
REMARK INTRA:                  -0.566
REMARK UNBOUND:                -1.131
REMARK SMILES CCCNC(=O)c1nnc2c(-c3c(F)cccc3OC)cccc2c1N
REMARK SMILES IDX 7 1 8 2 9 3 10 4 24 5 25 6 23 7 22 8 21 9 11 10 5 11 4 12
REMARK SMILES IDX 6 13 3 15 2 16 1 17 26 18 12 21 18 22 13 23 17 24 15 25
REMARK SMILES IDX 16 26 14 27 19 28 20 29
REMARK H PARENT 4 14 26 19 26 20
ROOT
ATOM      1  C   UNL     1     145.171  98.641 142.305  1.00  0.00     0.174 A 
ATOM      2  N   UNL     1     145.395  98.783 140.980  1.00  0.00    -0.142 NA
ATOM      3  N   UNL     1     144.504  98.254 140.090  1.00  0.00    -0.149 NA
ATOM      4  C   UNL     1     143.418  97.563 140.497  1.00  0.00     0.103 A 
ATOM      5  C   UNL     1     143.164  97.386 141.878  1.00  0.00     0.028 A 
ATOM      6  C   UNL     1     144.047  97.982 142.817  1.00  0.00     0.075 A 
ATOM      7  C   UNL     1     142.041  96.614 142.266  1.00  0.00     0.013 A 
ATOM      8  C   UNL     1     141.179  96.057 141.328  1.00  0.00     0.002 A 
ATOM      9  C   UNL     1     141.422  96.255 139.978  1.00  0.00     0.011 A 
ATOM     10  C   UNL     1     142.536  97.001 139.554  1.00  0.00     0.017 A 
ENDROOT
BRANCH   1  11
ATOM     11  C   UNL     1     146.194  99.295 143.185  1.00  0.00     0.273 C 
ATOM     12  N   UNL     1     146.006 100.649 143.396  1.00  0.00    -0.351 N 
ATOM     13  O   UNL     1     147.117  98.657 143.684  1.00  0.00    -0.267 OA
ATOM     14  H   UNL     1     145.209 101.084 142.939  1.00  0.00     0.163 HD
BRANCH  12  15
ATOM     15  C   UNL     1     146.900 101.461 144.191  1.00  0.00     0.116 C 
BRANCH  15  16
ATOM     16  C   UNL     1     148.185 101.811 143.445  1.00  0.00     0.018 C 
ATOM     17  C   UNL     1     148.571 103.278 143.574  1.00  0.00     0.006 C 
ENDBRANCH  15  16
ENDBRANCH  12  15
ENDBRANCH   1  11
BRANCH   6  18
ATOM     18  N   UNL     1     143.878  97.753 144.210  1.00  0.00    -0.396 N 
ATOM     19  H   UNL     1     143.017  97.225 144.408  1.00  0.00     0.156 HD
ATOM     20  H   UNL     1     144.681  97.323 144.658  1.00  0.00     0.156 HD
ENDBRANCH   6  18
BRANCH  10  21
ATOM     21  C   UNL     1     142.763  97.179 138.108  1.00  0.00     0.062 A 
ATOM     22  C   UNL     1     143.810  96.517 137.430  1.00  0.00     0.129 A 
ATOM     23  C   UNL     1     141.932  98.037 137.372  1.00  0.00     0.134 A 
ATOM     24  C   UNL     1     143.989  96.722 136.054  1.00  0.00     0.047 A 
ATOM     25  C   UNL     1     142.116  98.243 136.008  1.00  0.00     0.040 A 
ATOM     26  C   UNL     1     143.146  97.584 135.348  1.00  0.00     0.007 A 
ATOM     27  F   UNL     1     140.921  98.679 137.979  1.00  0.00    -0.206 F 
BRANCH  22  28
ATOM     28  O   UNL     1     144.587  95.681 138.193  1.00  0.00    -0.496 OA
ATOM     29  C   UNL     1     145.828  95.260 137.641  1.00  0.00     0.278 C 
ENDBRANCH  22  28
ENDBRANCH  10  21
TORSDOF 6
ENDMDL
MODEL 17
REMARK VINA RESULT:    -6.029      2.839      5.197
REMARK INTER + INTRA:          -9.099
REMARK INTER:                  -8.209
REMARK INTRA:                  -0.889
REMARK UNBOUND:                -1.131
REMARK SMILES CCCNC(=O)c1nnc2c(-c3c(F)cccc3OC)cccc2c1N
REMARK SMILES IDX 7 1 8 2 9 3 10 4 24 5 25 6 23 7 22 8 21 9 11 10 5 11 4 12
REMARK SMILES IDX 6 13 3 15 2 16 1 17 26 18 12 21 18 22 13 23 17 24 15 25
REMARK SMILES IDX 16 26 14 27 19 28 20 29
REMARK H PARENT 4 14 26 19 26 20
ROOT
ATOM      1  C   UNL     1     143.607  96.903 138.015  1.00  0.00     0.174 A 
ATOM      2  N   UNL     1     144.581  96.057 137.614  1.00  0.00    -0.142 NA
ATOM      3  N   UNL     1     144.772  95.841 136.278  1.00  0.00    -0.149 NA
ATOM      4  C   UNL     1     143.992  96.426 135.346  1.00  0.00     0.103 A 
ATOM      5  C   UNL     1     142.955  97.307 135.735  1.00  0.00     0.028 A 
ATOM      6  C   UNL     1     142.782  97.590 137.117  1.00  0.00     0.075 A 
ATOM      7  C   UNL     1     142.127  97.865 134.730  1.00  0.00     0.013 A 
ATOM      8  C   UNL     1     142.328  97.588 133.383  1.00  0.00     0.002 A 
ATOM      9  C   UNL     1     143.360  96.743 133.007  1.00  0.00     0.011 A 
ATOM     10  C   UNL     1     144.192  96.157 133.978  1.00  0.00     0.017 A 
ENDROOT
BRANCH   1  11
ATOM     11  C   UNL     1     143.516  97.092 139.500  1.00  0.00     0.273 C 
ATOM     12  N   UNL     1     142.649  96.233 140.149  1.00  0.00    -0.351 N 
ATOM     13  O   UNL     1     144.181  97.945 140.082  1.00  0.00    -0.267 OA
ATOM     14  H   UNL     1     142.146  95.561 139.576  1.00  0.00     0.163 HD
BRANCH  12  15
ATOM     15  C   UNL     1     142.404  96.277 141.574  1.00  0.00     0.116 C 
BRANCH  15  16
ATOM     16  C   UNL     1     141.048  96.893 141.911  1.00  0.00     0.018 C 
ATOM     17  C   UNL     1     141.027  97.589 143.264  1.00  0.00     0.006 C 
ENDBRANCH  15  16
ENDBRANCH  12  15
ENDBRANCH   1  11
BRANCH   6  18
ATOM     18  N   UNL     1     141.698  98.397 137.556  1.00  0.00    -0.396 N 
ATOM     19  H   UNL     1     141.701  98.516 138.579  1.00  0.00     0.156 HD
ATOM     20  H   UNL     1     141.634  99.294 137.084  1.00  0.00     0.156 HD
ENDBRANCH   6  18
BRANCH  10  21
ATOM     21  C   UNL     1     145.273  95.256 133.536  1.00  0.00     0.062 A 
ATOM     22  C   UNL     1     146.574  95.731 133.260  1.00  0.00     0.129 A 
ATOM     23  C   UNL     1     145.015  93.888 133.367  1.00  0.00     0.134 A 
ATOM     24  C   UNL     1     147.568  94.836 132.838  1.00  0.00     0.047 A 
ATOM     25  C   UNL     1     146.001  93.003 132.942  1.00  0.00     0.040 A 
ATOM     26  C   UNL     1     147.280  93.477 132.678  1.00  0.00     0.007 A 
ATOM     27  F   UNL     1     143.792  93.397 133.626  1.00  0.00    -0.206 F 
BRANCH  22  28
ATOM     28  O   UNL     1     146.778  97.075 133.451  1.00  0.00    -0.496 OA
ATOM     29  C   UNL     1     148.064  97.591 133.135  1.00  0.00     0.278 C 
ENDBRANCH  22  28
ENDBRANCH  10  21
TORSDOF 6
ENDMDL
MODEL 18
REMARK VINA RESULT:    -5.883      3.578      4.735
REMARK INTER + INTRA:          -8.906
REMARK INTER:                  -7.912
REMARK INTRA:                  -0.994
REMARK UNBOUND:                -1.131
REMARK SMILES CCCNC(=O)c1nnc2c(-c3c(F)cccc3OC)cccc2c1N
REMARK SMILES IDX 7 1 8 2 9 3 10 4 24 5 25 6 23 7 22 8 21 9 11 10 5 11 4 12
REMARK SMILES IDX 6 13 3 15 2 16 1 17 26 18 12 21 18 22 13 23 17 24 15 25
REMARK SMILES IDX 16 26 14 27 19 28 20 29
REMARK H PARENT 4 14 26 19 26 20
ROOT
ATOM      1  C   UNL     1     144.636  95.557 135.811  1.00  0.00     0.174 A 
ATOM      2  N   UNL     1     144.200  96.837 135.791  1.00  0.00    -0.142 NA
ATOM      3  N   UNL     1     143.065  97.146 135.097  1.00  0.00    -0.149 NA
ATOM      4  C   UNL     1     142.380  96.213 134.402  1.00  0.00     0.103 A 
ATOM      5  C   UNL     1     142.819  94.868 134.394  1.00  0.00     0.028 A 
ATOM      6  C   UNL     1     143.963  94.517 135.160  1.00  0.00     0.075 A 
ATOM      7  C   UNL     1     142.102  93.927 133.615  1.00  0.00     0.013 A 
ATOM      8  C   UNL     1     140.973  94.290 132.889  1.00  0.00     0.002 A 
ATOM      9  C   UNL     1     140.536  95.604 132.920  1.00  0.00     0.011 A 
ATOM     10  C   UNL     1     141.232  96.570 133.670  1.00  0.00     0.017 A 
ENDROOT
BRANCH   1  11
ATOM     11  C   UNL     1     145.868  95.330 136.636  1.00  0.00     0.273 C 
ATOM     12  N   UNL     1     147.056  95.681 136.023  1.00  0.00    -0.351 N 
ATOM     13  O   UNL     1     145.805  94.876 137.775  1.00  0.00    -0.267 OA
ATOM     14  H   UNL     1     147.000  96.050 135.077  1.00  0.00     0.163 HD
BRANCH  12  15
ATOM     15  C   UNL     1     148.351  95.511 136.645  1.00  0.00     0.116 C 
BRANCH  15  16
ATOM     16  C   UNL     1     149.499  95.839 135.692  1.00  0.00     0.018 C 
ATOM     17  C   UNL     1     150.151  97.183 135.981  1.00  0.00     0.006 C 
ENDBRANCH  15  16
ENDBRANCH  12  15
ENDBRANCH   1  11
BRANCH   6  18
ATOM     18  N   UNL     1     144.488  93.198 135.107  1.00  0.00    -0.396 N 
ATOM     19  H   UNL     1     145.413  93.137 135.554  1.00  0.00     0.156 HD
ATOM     20  H   UNL     1     143.860  92.488 135.472  1.00  0.00     0.156 HD
ENDBRANCH   6  18
BRANCH  10  21
ATOM     21  C   UNL     1     140.738  97.960 133.669  1.00  0.00     0.062 A 
ATOM     22  C   UNL     1     141.222  98.922 132.756  1.00  0.00     0.129 A 
ATOM     23  C   UNL     1     139.770  98.357 134.603  1.00  0.00     0.134 A 
ATOM     24  C   UNL     1     140.726 100.234 132.796  1.00  0.00     0.047 A 
ATOM     25  C   UNL     1     139.285  99.661 134.645  1.00  0.00     0.040 A 
ATOM     26  C   UNL     1     139.762 100.600 133.740  1.00  0.00     0.007 A 
ATOM     27  F   UNL     1     139.281  97.469 135.483  1.00  0.00    -0.206 F 
BRANCH  22  28
ATOM     28  O   UNL     1     142.160  98.481 131.855  1.00  0.00    -0.496 OA
ATOM     29  C   UNL     1     143.492  98.951 132.017  1.00  0.00     0.278 C 
ENDBRANCH  22  28
ENDBRANCH  10  21
TORSDOF 6
ENDMDL
MODEL 19
REMARK VINA RESULT:    -5.865      4.288      7.619
REMARK INTER + INTRA:          -8.882
REMARK INTER:                  -7.748
REMARK INTRA:                  -1.133
REMARK UNBOUND:                -1.131
REMARK SMILES CCCNC(=O)c1nnc2c(-c3c(F)cccc3OC)cccc2c1N
REMARK SMILES IDX 7 1 8 2 9 3 10 4 24 5 25 6 23 7 22 8 21 9 11 10 5 11 4 12
REMARK SMILES IDX 6 13 3 15 2 16 1 17 26 18 12 21 18 22 13 23 17 24 15 25
REMARK SMILES IDX 16 26 14 27 19 28 20 29
REMARK H PARENT 4 14 26 19 26 20
ROOT
ATOM      1  C   UNL     1     143.591  98.129 132.717  1.00  0.00     0.174 A 
ATOM      2  N   UNL     1     144.504  98.362 133.686  1.00  0.00    -0.142 NA
ATOM      3  N   UNL     1     145.704  97.711 133.644  1.00  0.00    -0.149 NA
ATOM      4  C   UNL     1     145.995  96.817 132.677  1.00  0.00     0.103 A 
ATOM      5  C   UNL     1     145.055  96.543 131.655  1.00  0.00     0.028 A 
ATOM      6  C   UNL     1     143.825  97.254 131.649  1.00  0.00     0.075 A 
ATOM      7  C   UNL     1     145.377  95.562 130.685  1.00  0.00     0.013 A 
ATOM      8  C   UNL     1     146.595  94.892 130.700  1.00  0.00     0.002 A 
ATOM      9  C   UNL     1     147.520  95.183 131.690  1.00  0.00     0.011 A 
ATOM     10  C   UNL     1     147.229  96.139 132.680  1.00  0.00     0.017 A 
ENDROOT
BRANCH   1  11
ATOM     11  C   UNL     1     142.327  98.926 132.844  1.00  0.00     0.273 C 
ATOM     12  N   UNL     1     141.722  98.872 134.086  1.00  0.00    -0.351 N 
ATOM     13  O   UNL     1     141.883  99.583 131.906  1.00  0.00    -0.267 OA
ATOM     14  H   UNL     1     142.171  98.300 134.797  1.00  0.00     0.163 HD
BRANCH  12  15
ATOM     15  C   UNL     1     140.484  99.551 134.397  1.00  0.00     0.116 C 
BRANCH  15  16
ATOM     16  C   UNL     1     139.501  98.651 135.143  1.00  0.00     0.018 C 
ATOM     17  C   UNL     1     139.898  98.403 136.591  1.00  0.00     0.006 C 
ENDBRANCH  15  16
ENDBRANCH  12  15
ENDBRANCH   1  11
BRANCH   6  18
ATOM     18  N   UNL     1     142.819  96.944 130.695  1.00  0.00    -0.396 N 
ATOM     19  H   UNL     1     143.219  96.547 129.834  1.00  0.00     0.156 HD
ATOM     20  H   UNL     1     142.074  96.357 131.056  1.00  0.00     0.156 HD
ENDBRANCH   6  18
BRANCH  10  21
ATOM     21  C   UNL     1     148.238  96.412 133.721  1.00  0.00     0.062 A 
ATOM     22  C   UNL     1     148.271  95.691 134.935  1.00  0.00     0.129 A 
ATOM     23  C   UNL     1     149.191  97.422 133.521  1.00  0.00     0.134 A 
ATOM     24  C   UNL     1     149.247  95.990 135.897  1.00  0.00     0.047 A 
ATOM     25  C   UNL     1     150.154  97.721 134.480  1.00  0.00     0.040 A 
ATOM     26  C   UNL     1     150.183  97.003 135.670  1.00  0.00     0.007 A 
ATOM     27  F   UNL     1     149.197  98.124 132.377  1.00  0.00    -0.206 F 
BRANCH  22  28
ATOM     28  O   UNL     1     147.325  94.707 135.077  1.00  0.00    -0.496 OA
ATOM     29  C   UNL     1     146.435  94.812 136.181  1.00  0.00     0.278 C 
ENDBRANCH  22  28
ENDBRANCH  10  21
TORSDOF 6
ENDMDL
MODEL 20
REMARK VINA RESULT:    -5.862      2.065      4.244
REMARK INTER + INTRA:          -8.877
REMARK INTER:                  -8.345
REMARK INTRA:                  -0.533
REMARK UNBOUND:                -1.131
REMARK SMILES CCCNC(=O)c1nnc2c(-c3c(F)cccc3OC)cccc2c1N
REMARK SMILES IDX 7 1 8 2 9 3 10 4 24 5 25 6 23 7 22 8 21 9 11 10 5 11 4 12
REMARK SMILES IDX 6 13 3 15 2 16 1 17 26 18 12 21 18 22 13 23 17 24 15 25
REMARK SMILES IDX 16 26 14 27 19 28 20 29
REMARK H PARENT 4 14 26 19 26 20
ROOT
ATOM      1  C   UNL     1     143.246  97.024 138.189  1.00  0.00     0.174 A 
ATOM      2  N   UNL     1     144.388  96.622 137.588  1.00  0.00    -0.142 NA
ATOM      3  N   UNL     1     144.411  96.467 136.231  1.00  0.00    -0.149 NA
ATOM      4  C   UNL     1     143.314  96.676 135.473  1.00  0.00     0.103 A 
ATOM      5  C   UNL     1     142.101  97.085 136.075  1.00  0.00     0.028 A 
ATOM      6  C   UNL     1     142.075  97.309 137.478  1.00  0.00     0.075 A 
ATOM      7  C   UNL     1     140.958  97.247 135.253  1.00  0.00     0.013 A 
ATOM      8  C   UNL     1     141.013  97.041 133.879  1.00  0.00     0.002 A 
ATOM      9  C   UNL     1     142.210  96.663 133.294  1.00  0.00     0.011 A 
ATOM     10  C   UNL     1     143.362  96.476 134.080  1.00  0.00     0.017 A 
ENDROOT
BRANCH   1  11
ATOM     11  C   UNL     1     143.350  97.196 139.675  1.00  0.00     0.273 C 
ATOM     12  N   UNL     1     142.439  96.466 140.415  1.00  0.00    -0.351 N 
ATOM     13  O   UNL     1     144.197  97.928 140.181  1.00  0.00    -0.267 OA
ATOM     14  H   UNL     1     141.779  95.888 139.901  1.00  0.00     0.163 HD
BRANCH  12  15
ATOM     15  C   UNL     1     142.362  96.519 141.858  1.00  0.00     0.116 C 
BRANCH  15  16
ATOM     16  C   UNL     1     141.155  97.317 142.347  1.00  0.00     0.018 C 
ATOM     17  C   UNL     1     140.763  96.991 143.781  1.00  0.00     0.006 C 
ENDBRANCH  15  16
ENDBRANCH  12  15
ENDBRANCH   1  11
BRANCH   6  18
ATOM     18  N   UNL     1     140.856  97.634 138.133  1.00  0.00    -0.396 N 
ATOM     19  H   UNL     1     140.150  97.986 137.472  1.00  0.00     0.156 HD
ATOM     20  H   UNL     1     140.480  96.882 138.701  1.00  0.00     0.156 HD
ENDBRANCH   6  18
BRANCH  10  21
ATOM     21  C   UNL     1     144.614  96.064 133.418  1.00  0.00     0.062 A 
ATOM     22  C   UNL     1     145.004  94.710 133.337  1.00  0.00     0.129 A 
ATOM     23  C   UNL     1     145.459  97.034 132.859  1.00  0.00     0.134 A 
ATOM     24  C   UNL     1     146.206  94.366 132.702  1.00  0.00     0.047 A 
ATOM     25  C   UNL     1     146.655  96.691 132.235  1.00  0.00     0.040 A 
ATOM     26  C   UNL     1     147.029  95.356 132.156  1.00  0.00     0.007 A 
ATOM     27  F   UNL     1     145.119  98.332 132.910  1.00  0.00    -0.206 F 
BRANCH  22  28
ATOM     28  O   UNL     1     144.137  93.799 133.890  1.00  0.00    -0.496 OA
ATOM     29  C   UNL     1     143.275  93.098 133.004  1.00  0.00     0.278 C 
ENDBRANCH  22  28
ENDBRANCH  10  21
TORSDOF 6
ENDMDL
