MODEL 1
REMARK VINA RESULT:   -12.808      0.000      0.000
REMARK INTER + INTRA:         -18.390
REMARK INTER:                 -18.049
REMARK INTRA:                  -0.341
REMARK UNBOUND:                -0.341
REMARK SMILES Cc1ccc(NC(=O)c2ccc(CN3CCN(C)CC3)cc2)cc1Nc1nc(-c2cccnc2)cs1
REMARK SMILES IDX 6 1 7 2 8 3 5 5 2 6 3 7 24 8 4 9 23 10 1 11 25 12 26 14
REMARK SMILES IDX 27 15 36 16 28 17 35 18 29 19 30 20 34 21 31 22 33 23 32 24
REMARK SMILES IDX 9 25 10 26 22 27 11 28 21 29 12 30 13 31 14 32 15 33 20 34
REMARK SMILES IDX 16 35 19 36 17 37 18 38
REMARK H PARENT 6 4 25 13
ROOT
ATOM      1  N   UNL     1      24.269  26.061  40.077  1.00  0.00    -0.322 N 
ATOM      2  C   UNL     1      24.887  25.250  39.142  1.00  0.00     0.255 C 
ATOM      3  O   UNL     1      25.633  24.305  39.366  1.00  0.00    -0.269 OA
ATOM      4  H   UNL     1      23.569  26.702  39.729  1.00  0.00     0.170 HD
ENDROOT
BRANCH   1   5
ATOM      5  C   UNL     1      24.409  26.010  41.480  1.00  0.00     0.043 A 
ATOM      6  C   UNL     1      24.525  25.979  44.302  1.00  0.00    -0.027 A 
ATOM      7  C   UNL     1      23.495  26.656  43.637  1.00  0.00     0.008 A 
ATOM      8  C   UNL     1      25.523  25.339  43.545  1.00  0.00     0.045 A 
ATOM      9  C   UNL     1      23.438  26.669  42.241  1.00  0.00     0.026 A 
ATOM     10  C   UNL     1      25.452  25.359  42.140  1.00  0.00     0.052 A 
ATOM     11  C   UNL     1      24.555  25.984  45.806  1.00  0.00     0.046 C 
BRANCH   8  12
ATOM     12  N   UNL     1      26.606  24.684  44.180  1.00  0.00    -0.331 N 
ATOM     13  H   UNL     1      26.800  23.793  43.730  1.00  0.00     0.169 HD
BRANCH  12  14
ATOM     14  C   UNL     1      27.765  25.311  44.517  1.00  0.00     0.187 A 
ATOM     15  N   UNL     1      28.648  24.735  45.305  1.00  0.00    -0.220 NA
ATOM     16  S   UNL     1      28.217  26.898  44.002  1.00  0.00    -0.105 S 
ATOM     17  C   UNL     1      29.740  25.558  45.536  1.00  0.00     0.085 A 
ATOM     18  C   UNL     1      29.675  26.777  44.892  1.00  0.00     0.097 A 
BRANCH  17  19
ATOM     19  C   UNL     1      30.834  25.120  46.398  1.00  0.00     0.019 A 
ATOM     20  C   UNL     1      31.950  25.910  46.690  1.00  0.00     0.013 A 
ATOM     21  C   UNL     1      30.792  23.857  46.987  1.00  0.00     0.121 A 
ATOM     22  C   UNL     1      32.951  25.422  47.534  1.00  0.00     0.021 A 
ATOM     23  N   UNL     1      31.749  23.354  47.810  1.00  0.00    -0.264 NA
ATOM     24  C   UNL     1      32.806  24.151  48.064  1.00  0.00     0.111 A 
ENDBRANCH  17  19
ENDBRANCH  12  14
ENDBRANCH   8  12
ENDBRANCH   1   5
BRANCH   2  25
ATOM     25  C   UNL     1      24.541  25.563  37.728  1.00  0.00     0.040 A 
ATOM     26  C   UNL     1      23.368  26.278  37.468  1.00  0.00     0.014 A 
ATOM     27  C   UNL     1      25.352  25.146  36.664  1.00  0.00     0.014 A 
ATOM     28  C   UNL     1      23.025  26.604  36.155  1.00  0.00     0.006 A 
ATOM     29  C   UNL     1      25.003  25.470  35.350  1.00  0.00     0.006 A 
ATOM     30  C   UNL     1      23.843  26.214  35.084  1.00  0.00    -0.034 A 
BRANCH  30  31
ATOM     31  C   UNL     1      23.457  26.555  33.656  1.00  0.00     0.120 C 
BRANCH  31  32
ATOM     32  N   UNL     1      23.831  27.930  33.279  1.00  0.00    -0.297 NA
ATOM     33  C   UNL     1      22.909  28.903  33.893  1.00  0.00     0.100 C 
ATOM     34  C   UNL     1      23.828  28.113  31.807  1.00  0.00     0.100 C 
ATOM     35  C   UNL     1      21.457  28.893  33.340  1.00  0.00     0.099 C 
ATOM     36  C   UNL     1      22.542  28.730  31.190  1.00  0.00     0.099 C 
ATOM     37  N   UNL     1      21.338  28.390  31.958  1.00  0.00    -0.304 NA
ATOM     38  C   UNL     1      20.125  28.887  31.315  1.00  0.00     0.105 C 
ENDBRANCH  31  32
ENDBRANCH  30  31
ENDBRANCH   2  25
TORSDOF 7
ENDMDL
MODEL 2
REMARK VINA RESULT:   -11.995      0.789      1.526
REMARK INTER + INTRA:         -17.245
REMARK INTER:                 -17.898
REMARK INTRA:                   0.653
REMARK UNBOUND:                -0.341
REMARK SMILES Cc1ccc(NC(=O)c2ccc(CN3CCN(C)CC3)cc2)cc1Nc1nc(-c2cccnc2)cs1
REMARK SMILES IDX 6 1 7 2 8 3 5 5 2 6 3 7 24 8 4 9 23 10 1 11 25 12 26 14
REMARK SMILES IDX 27 15 36 16 28 17 35 18 29 19 30 20 34 21 31 22 33 23 32 24
REMARK SMILES IDX 9 25 10 26 22 27 11 28 21 29 12 30 13 31 14 32 15 33 20 34
REMARK SMILES IDX 16 35 19 36 17 37 18 38
REMARK H PARENT 6 4 25 13
ROOT
ATOM      1  N   UNL     1      24.495  26.109  40.047  1.00  0.00    -0.322 N 
ATOM      2  C   UNL     1      24.997  25.196  39.136  1.00  0.00     0.255 C 
ATOM      3  O   UNL     1      25.564  24.140  39.389  1.00  0.00    -0.269 OA
ATOM      4  H   UNL     1      23.926  26.856  39.672  1.00  0.00     0.170 HD
ENDROOT
BRANCH   1   5
ATOM      5  C   UNL     1      24.580  26.049  41.454  1.00  0.00     0.043 A 
ATOM      6  C   UNL     1      24.582  25.996  44.278  1.00  0.00    -0.027 A 
ATOM      7  C   UNL     1      23.571  26.666  43.576  1.00  0.00     0.008 A 
ATOM      8  C   UNL     1      25.618  25.374  43.557  1.00  0.00     0.045 A 
ATOM      9  C   UNL     1      23.570  26.689  42.179  1.00  0.00     0.026 A 
ATOM     10  C   UNL     1      25.603  25.405  42.150  1.00  0.00     0.052 A 
ATOM     11  C   UNL     1      24.551  25.989  45.781  1.00  0.00     0.046 C 
BRANCH   8  12
ATOM     12  N   UNL     1      26.682  24.727  44.230  1.00  0.00    -0.331 N 
ATOM     13  H   UNL     1      26.879  23.824  43.806  1.00  0.00     0.169 HD
BRANCH  12  14
ATOM     14  C   UNL     1      27.839  25.354  44.576  1.00  0.00     0.187 A 
ATOM     15  N   UNL     1      28.728  24.766  45.348  1.00  0.00    -0.220 NA
ATOM     16  S   UNL     1      28.279  26.954  44.094  1.00  0.00    -0.105 S 
ATOM     17  C   UNL     1      29.816  25.591  45.593  1.00  0.00     0.085 A 
ATOM     18  C   UNL     1      29.741  26.823  44.975  1.00  0.00     0.097 A 
BRANCH  17  19
ATOM     19  C   UNL     1      30.916  25.141  46.440  1.00  0.00     0.019 A 
ATOM     20  C   UNL     1      32.012  25.944  46.774  1.00  0.00     0.013 A 
ATOM     21  C   UNL     1      30.902  23.852  46.972  1.00  0.00     0.121 A 
ATOM     22  C   UNL     1      33.020  25.443  47.601  1.00  0.00     0.021 A 
ATOM     23  N   UNL     1      31.868  23.337  47.777  1.00  0.00    -0.264 NA
ATOM     24  C   UNL     1      32.904  24.147  48.072  1.00  0.00     0.111 A 
ENDBRANCH  17  19
ENDBRANCH  12  14
ENDBRANCH   8  12
ENDBRANCH   1   5
BRANCH   2  25
ATOM     25  C   UNL     1      24.755  25.549  37.709  1.00  0.00     0.040 A 
ATOM     26  C   UNL     1      25.560  24.961  36.729  1.00  0.00     0.014 A 
ATOM     27  C   UNL     1      23.757  26.459  37.337  1.00  0.00     0.014 A 
ATOM     28  C   UNL     1      25.347  25.255  35.381  1.00  0.00     0.006 A 
ATOM     29  C   UNL     1      23.549  26.754  35.987  1.00  0.00     0.006 A 
ATOM     30  C   UNL     1      24.333  26.146  34.995  1.00  0.00    -0.034 A 
BRANCH  30  31
ATOM     31  C   UNL     1      24.116  26.477  33.530  1.00  0.00     0.120 C 
BRANCH  31  32
ATOM     32  N   UNL     1      22.767  27.006  33.260  1.00  0.00    -0.297 NA
ATOM     33  C   UNL     1      22.675  27.505  31.876  1.00  0.00     0.100 C 
ATOM     34  C   UNL     1      22.410  28.097  34.199  1.00  0.00     0.100 C 
ATOM     35  C   UNL     1      23.497  28.787  31.569  1.00  0.00     0.099 C 
ATOM     36  C   UNL     1      22.636  29.548  33.691  1.00  0.00     0.099 C 
ATOM     37  N   UNL     1      23.755  29.639  32.745  1.00  0.00    -0.304 NA
ATOM     38  C   UNL     1      24.025  31.018  32.354  1.00  0.00     0.105 C 
ENDBRANCH  31  32
ENDBRANCH  30  31
ENDBRANCH   2  25
TORSDOF 7
ENDMDL
MODEL 3
REMARK VINA RESULT:   -11.907      2.865     12.735
REMARK INTER + INTRA:         -17.121
REMARK INTER:                 -16.394
REMARK INTRA:                  -0.727
REMARK UNBOUND:                -0.341
REMARK SMILES Cc1ccc(NC(=O)c2ccc(CN3CCN(C)CC3)cc2)cc1Nc1nc(-c2cccnc2)cs1
REMARK SMILES IDX 6 1 7 2 8 3 5 5 2 6 3 7 24 8 4 9 23 10 1 11 25 12 26 14
REMARK SMILES IDX 27 15 36 16 28 17 35 18 29 19 30 20 34 21 31 22 33 23 32 24
REMARK SMILES IDX 9 25 10 26 22 27 11 28 21 29 12 30 13 31 14 32 15 33 20 34
REMARK SMILES IDX 16 35 19 36 17 37 18 38
REMARK H PARENT 6 4 25 13
ROOT
ATOM      1  N   UNL     1      28.107  26.374  44.715  1.00  0.00    -0.322 N 
ATOM      2  C   UNL     1      28.724  25.267  45.271  1.00  0.00     0.255 C 
ATOM      3  O   UNL     1      28.318  24.112  45.254  1.00  0.00    -0.269 OA
ATOM      4  H   UNL     1      28.647  27.228  44.688  1.00  0.00     0.170 HD
ENDROOT
BRANCH   1   5
ATOM      5  C   UNL     1      26.855  26.419  44.066  1.00  0.00     0.043 A 
ATOM      6  C   UNL     1      24.271  26.510  42.930  1.00  0.00    -0.027 A 
ATOM      7  C   UNL     1      24.441  26.271  44.299  1.00  0.00     0.008 A 
ATOM      8  C   UNL     1      25.408  26.674  42.117  1.00  0.00     0.045 A 
ATOM      9  C   UNL     1      25.720  26.228  44.860  1.00  0.00     0.026 A 
ATOM     10  C   UNL     1      26.690  26.629  42.697  1.00  0.00     0.052 A 
ATOM     11  C   UNL     1      22.880  26.552  42.359  1.00  0.00     0.046 C 
BRANCH   8  12
ATOM     12  N   UNL     1      25.279  26.872  40.722  1.00  0.00    -0.331 N 
ATOM     13  H   UNL     1      25.873  27.637  40.411  1.00  0.00     0.169 HD
BRANCH  12  14
ATOM     14  C   UNL     1      25.301  25.855  39.818  1.00  0.00     0.187 A 
ATOM     15  N   UNL     1      25.323  26.094  38.523  1.00  0.00    -0.220 NA
ATOM     16  S   UNL     1      25.276  24.174  40.219  1.00  0.00    -0.105 S 
ATOM     17  C   UNL     1      25.317  24.918  37.787  1.00  0.00     0.085 A 
ATOM     18  C   UNL     1      25.302  23.771  38.555  1.00  0.00     0.097 A 
BRANCH  17  19
ATOM     19  C   UNL     1      25.324  24.953  36.328  1.00  0.00     0.019 A 
ATOM     20  C   UNL     1      26.180  24.176  35.541  1.00  0.00     0.013 A 
ATOM     21  C   UNL     1      24.436  25.786  35.648  1.00  0.00     0.121 A 
ATOM     22  C   UNL     1      26.118  24.259  34.148  1.00  0.00     0.021 A 
ATOM     23  N   UNL     1      24.352  25.889  34.296  1.00  0.00    -0.264 NA
ATOM     24  C   UNL     1      25.197  25.121  33.578  1.00  0.00     0.111 A 
ENDBRANCH  17  19
ENDBRANCH  12  14
ENDBRANCH   8  12
ENDBRANCH   1   5
BRANCH   2  25
ATOM     25  C   UNL     1      30.045  25.547  45.899  1.00  0.00     0.040 A 
ATOM     26  C   UNL     1      30.481  26.873  45.979  1.00  0.00     0.014 A 
ATOM     27  C   UNL     1      30.856  24.517  46.393  1.00  0.00     0.014 A 
ATOM     28  C   UNL     1      31.705  27.172  46.579  1.00  0.00     0.006 A 
ATOM     29  C   UNL     1      32.084  24.819  46.990  1.00  0.00     0.006 A 
ATOM     30  C   UNL     1      32.514  26.150  47.101  1.00  0.00    -0.034 A 
BRANCH  30  31
ATOM     31  C   UNL     1      33.853  26.477  47.737  1.00  0.00     0.120 C 
BRANCH  31  32
ATOM     32  N   UNL     1      34.945  26.566  46.750  1.00  0.00    -0.297 NA
ATOM     33  C   UNL     1      36.252  26.400  47.411  1.00  0.00     0.100 C 
ATOM     34  C   UNL     1      34.922  27.860  46.026  1.00  0.00     0.100 C 
ATOM     35  C   UNL     1      36.684  27.562  48.346  1.00  0.00     0.099 C 
ATOM     36  C   UNL     1      35.868  28.969  46.564  1.00  0.00     0.099 C 
ATOM     37  N   UNL     1      36.080  28.866  48.013  1.00  0.00    -0.304 NA
ATOM     38  C   UNL     1      36.884  29.971  48.525  1.00  0.00     0.105 C 
ENDBRANCH  31  32
ENDBRANCH  30  31
ENDBRANCH   2  25
TORSDOF 7
ENDMDL
MODEL 4
REMARK VINA RESULT:   -10.424      4.997     10.124
REMARK INTER + INTRA:         -15.031
REMARK INTER:                 -14.927
REMARK INTRA:                  -0.105
REMARK UNBOUND:                -0.341
REMARK SMILES Cc1ccc(NC(=O)c2ccc(CN3CCN(C)CC3)cc2)cc1Nc1nc(-c2cccnc2)cs1
REMARK SMILES IDX 6 1 7 2 8 3 5 5 2 6 3 7 24 8 4 9 23 10 1 11 25 12 26 14
REMARK SMILES IDX 27 15 36 16 28 17 35 18 29 19 30 20 34 21 31 22 33 23 32 24
REMARK SMILES IDX 9 25 10 26 22 27 11 28 21 29 12 30 13 31 14 32 15 33 20 34
REMARK SMILES IDX 16 35 19 36 17 37 18 38
REMARK H PARENT 6 4 25 13
ROOT
ATOM      1  N   UNL     1      32.206  25.327  46.938  1.00  0.00    -0.322 N 
ATOM      2  C   UNL     1      31.456  26.391  46.469  1.00  0.00     0.255 C 
ATOM      3  O   UNL     1      31.730  27.581  46.559  1.00  0.00    -0.269 OA
ATOM      4  H   UNL     1      31.911  24.404  46.651  1.00  0.00     0.170 HD
ENDROOT
BRANCH   1   5
ATOM      5  C   UNL     1      33.412  25.386  47.667  1.00  0.00     0.043 A 
ATOM      6  C   UNL     1      35.767  25.365  49.226  1.00  0.00    -0.027 A 
ATOM      7  C   UNL     1      34.661  24.588  49.592  1.00  0.00     0.008 A 
ATOM      8  C   UNL     1      35.680  26.184  48.085  1.00  0.00     0.045 A 
ATOM      9  C   UNL     1      33.497  24.598  48.820  1.00  0.00     0.026 A 
ATOM     10  C   UNL     1      34.502  26.183  47.315  1.00  0.00     0.052 A 
ATOM     11  C   UNL     1      37.005  25.328  50.079  1.00  0.00     0.046 C 
BRANCH   8  12
ATOM     12  N   UNL     1      36.760  27.018  47.707  1.00  0.00    -0.331 N 
ATOM     13  H   UNL     1      37.309  26.583  46.970  1.00  0.00     0.169 HD
BRANCH  12  14
ATOM     14  C   UNL     1      36.628  28.353  47.480  1.00  0.00     0.187 A 
ATOM     15  N   UNL     1      36.058  28.805  46.384  1.00  0.00    -0.220 NA
ATOM     16  S   UNL     1      37.190  29.596  48.541  1.00  0.00    -0.105 S 
ATOM     17  C   UNL     1      36.052  30.192  46.346  1.00  0.00     0.085 A 
ATOM     18  C   UNL     1      36.622  30.790  47.452  1.00  0.00     0.097 A 
BRANCH  17  19
ATOM     19  C   UNL     1      35.478  30.904  45.208  1.00  0.00     0.019 A 
ATOM     20  C   UNL     1      35.693  30.530  43.877  1.00  0.00     0.013 A 
ATOM     21  C   UNL     1      34.660  32.013  45.421  1.00  0.00     0.121 A 
ATOM     22  C   UNL     1      35.099  31.257  42.842  1.00  0.00     0.021 A 
ATOM     23  N   UNL     1      34.071  32.740  44.436  1.00  0.00    -0.264 NA
ATOM     24  C   UNL     1      34.305  32.343  43.169  1.00  0.00     0.111 A 
ENDBRANCH  17  19
ENDBRANCH  12  14
ENDBRANCH   8  12
ENDBRANCH   1   5
BRANCH   2  25
ATOM     25  C   UNL     1      30.217  26.000  45.739  1.00  0.00     0.040 A 
ATOM     26  C   UNL     1      29.744  26.841  44.727  1.00  0.00     0.014 A 
ATOM     27  C   UNL     1      29.519  24.828  46.053  1.00  0.00     0.014 A 
ATOM     28  C   UNL     1      28.598  26.495  44.010  1.00  0.00     0.006 A 
ATOM     29  C   UNL     1      28.369  24.486  45.336  1.00  0.00     0.006 A 
ATOM     30  C   UNL     1      27.904  25.309  44.299  1.00  0.00    -0.034 A 
BRANCH  30  31
ATOM     31  C   UNL     1      26.648  24.945  43.529  1.00  0.00     0.120 C 
BRANCH  31  32
ATOM     32  N   UNL     1      25.895  26.129  43.077  1.00  0.00    -0.297 NA
ATOM     33  C   UNL     1      24.538  25.744  42.647  1.00  0.00     0.100 C 
ATOM     34  C   UNL     1      26.584  26.821  41.961  1.00  0.00     0.100 C 
ATOM     35  C   UNL     1      24.459  24.903  41.344  1.00  0.00     0.099 C 
ATOM     36  C   UNL     1      26.100  26.472  40.527  1.00  0.00     0.099 C 
ATOM     37  N   UNL     1      25.599  25.096  40.427  1.00  0.00    -0.304 NA
ATOM     38  C   UNL     1      25.244  24.744  39.057  1.00  0.00     0.105 C 
ENDBRANCH  31  32
ENDBRANCH  30  31
ENDBRANCH   2  25
TORSDOF 7
ENDMDL
MODEL 5
REMARK VINA RESULT:   -10.314      3.643     11.919
REMARK INTER + INTRA:         -14.876
REMARK INTER:                 -14.600
REMARK INTRA:                  -0.276
REMARK UNBOUND:                -0.341
REMARK SMILES Cc1ccc(NC(=O)c2ccc(CN3CCN(C)CC3)cc2)cc1Nc1nc(-c2cccnc2)cs1
REMARK SMILES IDX 6 1 7 2 8 3 5 5 2 6 3 7 24 8 4 9 23 10 1 11 25 12 26 14
REMARK SMILES IDX 27 15 36 16 28 17 35 18 29 19 30 20 34 21 31 22 33 23 32 24
REMARK SMILES IDX 9 25 10 26 22 27 11 28 21 29 12 30 13 31 14 32 15 33 20 34
REMARK SMILES IDX 16 35 19 36 17 37 18 38
REMARK H PARENT 6 4 25 13
ROOT
ATOM      1  N   UNL     1      23.629  26.207  35.140  1.00  0.00    -0.322 N 
ATOM      2  C   UNL     1      24.640  25.323  35.474  1.00  0.00     0.255 C 
ATOM      3  O   UNL     1      25.363  24.706  34.703  1.00  0.00    -0.269 OA
ATOM      4  H   UNL     1      23.227  26.743  35.896  1.00  0.00     0.170 HD
ENDROOT
BRANCH   1   5
ATOM      5  C   UNL     1      23.178  26.539  33.845  1.00  0.00     0.043 A 
ATOM      6  C   UNL     1      22.302  27.032  31.205  1.00  0.00    -0.027 A 
ATOM      7  C   UNL     1      22.912  25.817  31.540  1.00  0.00     0.008 A 
ATOM      8  C   UNL     1      22.158  28.021  32.196  1.00  0.00     0.045 A 
ATOM      9  C   UNL     1      23.343  25.574  32.846  1.00  0.00     0.026 A 
ATOM     10  C   UNL     1      22.596  27.762  33.508  1.00  0.00     0.052 A 
ATOM     11  C   UNL     1      21.847  27.260  29.790  1.00  0.00     0.046 C 
BRANCH   8  12
ATOM     12  N   UNL     1      21.588  29.280  31.886  1.00  0.00    -0.331 N 
ATOM     13  H   UNL     1      20.994  29.213  31.063  1.00  0.00     0.169 HD
BRANCH  12  14
ATOM     14  C   UNL     1      21.021  30.093  32.819  1.00  0.00     0.187 A 
ATOM     15  N   UNL     1      21.716  30.545  33.842  1.00  0.00    -0.220 NA
ATOM     16  S   UNL     1      19.372  30.607  32.811  1.00  0.00    -0.105 S 
ATOM     17  C   UNL     1      20.938  31.333  34.678  1.00  0.00     0.085 A 
ATOM     18  C   UNL     1      19.632  31.482  34.260  1.00  0.00     0.097 A 
BRANCH  17  19
ATOM     19  C   UNL     1      21.508  31.925  35.884  1.00  0.00     0.019 A 
ATOM     20  C   UNL     1      20.952  33.029  36.539  1.00  0.00     0.013 A 
ATOM     21  C   UNL     1      22.662  31.381  36.448  1.00  0.00     0.121 A 
ATOM     22  C   UNL     1      21.552  33.531  37.696  1.00  0.00     0.021 A 
ATOM     23  N   UNL     1      23.268  31.848  37.571  1.00  0.00    -0.264 NA
ATOM     24  C   UNL     1      22.697  32.913  38.168  1.00  0.00     0.111 A 
ENDBRANCH  17  19
ENDBRANCH  12  14
ENDBRANCH   8  12
ENDBRANCH   1   5
BRANCH   2  25
ATOM     25  C   UNL     1      24.873  25.177  36.938  1.00  0.00     0.040 A 
ATOM     26  C   UNL     1      24.356  26.150  37.798  1.00  0.00     0.014 A 
ATOM     27  C   UNL     1      25.604  24.102  37.461  1.00  0.00     0.014 A 
ATOM     28  C   UNL     1      24.540  26.033  39.177  1.00  0.00     0.006 A 
ATOM     29  C   UNL     1      25.789  23.990  38.843  1.00  0.00     0.006 A 
ATOM     30  C   UNL     1      25.249  24.947  39.715  1.00  0.00    -0.034 A 
BRANCH  30  31
ATOM     31  C   UNL     1      25.462  24.832  41.213  1.00  0.00     0.120 C 
BRANCH  31  32
ATOM     32  N   UNL     1      25.433  26.140  41.893  1.00  0.00    -0.297 NA
ATOM     33  C   UNL     1      26.782  26.736  41.920  1.00  0.00     0.100 C 
ATOM     34  C   UNL     1      24.921  26.024  43.280  1.00  0.00     0.100 C 
ATOM     35  C   UNL     1      27.815  26.019  42.831  1.00  0.00     0.099 C 
ATOM     36  C   UNL     1      25.988  25.921  44.405  1.00  0.00     0.099 C 
ATOM     37  N   UNL     1      27.218  25.261  43.948  1.00  0.00    -0.304 NA
ATOM     38  C   UNL     1      28.172  25.076  45.035  1.00  0.00     0.105 C 
ENDBRANCH  31  32
ENDBRANCH  30  31
ENDBRANCH   2  25
TORSDOF 7
ENDMDL
MODEL 6
REMARK VINA RESULT:   -10.156      3.811     12.475
REMARK INTER + INTRA:         -14.653
REMARK INTER:                 -13.903
REMARK INTRA:                  -0.750
REMARK UNBOUND:                -0.341
REMARK SMILES Cc1ccc(NC(=O)c2ccc(CN3CCN(C)CC3)cc2)cc1Nc1nc(-c2cccnc2)cs1
REMARK SMILES IDX 6 1 7 2 8 3 5 5 2 6 3 7 24 8 4 9 23 10 1 11 25 12 26 14
REMARK SMILES IDX 27 15 36 16 28 17 35 18 29 19 30 20 34 21 31 22 33 23 32 24
REMARK SMILES IDX 9 25 10 26 22 27 11 28 21 29 12 30 13 31 14 32 15 33 20 34
REMARK SMILES IDX 16 35 19 36 17 37 18 38
REMARK H PARENT 6 4 25 13
ROOT
ATOM      1  N   UNL     1      23.588  26.269  34.879  1.00  0.00    -0.322 N 
ATOM      2  C   UNL     1      24.609  25.394  35.205  1.00  0.00     0.255 C 
ATOM      3  O   UNL     1      25.335  24.787  34.427  1.00  0.00    -0.269 OA
ATOM      4  H   UNL     1      23.185  26.798  35.639  1.00  0.00     0.170 HD
ENDROOT
BRANCH   1   5
ATOM      5  C   UNL     1      23.127  26.602  33.587  1.00  0.00     0.043 A 
ATOM      6  C   UNL     1      22.204  27.092  30.963  1.00  0.00    -0.027 A 
ATOM      7  C   UNL     1      22.654  25.819  31.336  1.00  0.00     0.008 A 
ATOM      8  C   UNL     1      22.247  28.136  31.906  1.00  0.00     0.045 A 
ATOM      9  C   UNL     1      23.109  25.578  32.635  1.00  0.00     0.026 A 
ATOM     10  C   UNL     1      22.706  27.878  33.211  1.00  0.00     0.052 A 
ATOM     11  C   UNL     1      21.719  27.316  29.557  1.00  0.00     0.046 C 
BRANCH   8  12
ATOM     12  N   UNL     1      21.844  29.446  31.554  1.00  0.00    -0.331 N 
ATOM     13  H   UNL     1      20.831  29.505  31.486  1.00  0.00     0.169 HD
BRANCH  12  14
ATOM     14  C   UNL     1      22.348  30.566  32.142  1.00  0.00     0.187 A 
ATOM     15  N   UNL     1      23.532  31.036  31.810  1.00  0.00    -0.220 NA
ATOM     16  S   UNL     1      21.552  31.480  33.374  1.00  0.00    -0.105 S 
ATOM     17  C   UNL     1      23.857  32.166  32.546  1.00  0.00     0.085 A 
ATOM     18  C   UNL     1      22.883  32.555  33.443  1.00  0.00     0.097 A 
BRANCH  17  19
ATOM     19  C   UNL     1      25.136  32.841  32.348  1.00  0.00     0.019 A 
ATOM     20  C   UNL     1      26.344  32.377  32.879  1.00  0.00     0.013 A 
ATOM     21  C   UNL     1      25.196  34.007  31.585  1.00  0.00     0.121 A 
ATOM     22  C   UNL     1      27.529  33.076  32.635  1.00  0.00     0.021 A 
ATOM     23  N   UNL     1      26.333  34.707  31.331  1.00  0.00    -0.264 NA
ATOM     24  C   UNL     1      27.472  34.223  31.863  1.00  0.00     0.111 A 
ENDBRANCH  17  19
ENDBRANCH  12  14
ENDBRANCH   8  12
ENDBRANCH   1   5
BRANCH   2  25
ATOM     25  C   UNL     1      24.851  25.244  36.667  1.00  0.00     0.040 A 
ATOM     26  C   UNL     1      24.329  26.209  37.533  1.00  0.00     0.014 A 
ATOM     27  C   UNL     1      25.596  24.176  37.182  1.00  0.00     0.014 A 
ATOM     28  C   UNL     1      24.521  26.089  38.911  1.00  0.00     0.006 A 
ATOM     29  C   UNL     1      25.790  24.060  38.562  1.00  0.00     0.006 A 
ATOM     30  C   UNL     1      25.244  25.008  39.440  1.00  0.00    -0.034 A 
BRANCH  30  31
ATOM     31  C   UNL     1      25.466  24.890  40.937  1.00  0.00     0.120 C 
BRANCH  31  32
ATOM     32  N   UNL     1      25.420  26.194  41.623  1.00  0.00    -0.297 NA
ATOM     33  C   UNL     1      26.780  26.743  41.779  1.00  0.00     0.100 C 
ATOM     34  C   UNL     1      24.779  26.088  42.957  1.00  0.00     0.100 C 
ATOM     35  C   UNL     1      27.700  25.984  42.775  1.00  0.00     0.099 C 
ATOM     36  C   UNL     1      25.734  25.941  44.173  1.00  0.00     0.099 C 
ATOM     37  N   UNL     1      26.977  25.241  43.825  1.00  0.00    -0.304 NA
ATOM     38  C   UNL     1      27.820  25.017  44.994  1.00  0.00     0.105 C 
ENDBRANCH  31  32
ENDBRANCH  30  31
ENDBRANCH   2  25
TORSDOF 7
ENDMDL
MODEL 7
REMARK VINA RESULT:    -9.893      6.212     13.307
REMARK INTER + INTRA:         -14.283
REMARK INTER:                 -14.657
REMARK INTRA:                   0.375
REMARK UNBOUND:                -0.341
REMARK SMILES Cc1ccc(NC(=O)c2ccc(CN3CCN(C)CC3)cc2)cc1Nc1nc(-c2cccnc2)cs1
REMARK SMILES IDX 6 1 7 2 8 3 5 5 2 6 3 7 24 8 4 9 23 10 1 11 25 12 26 14
REMARK SMILES IDX 27 15 36 16 28 17 35 18 29 19 30 20 34 21 31 22 33 23 32 24
REMARK SMILES IDX 9 25 10 26 22 27 11 28 21 29 12 30 13 31 14 32 15 33 20 34
REMARK SMILES IDX 16 35 19 36 17 37 18 38
REMARK H PARENT 6 4 25 13
ROOT
ATOM      1  N   UNL     1      33.621  27.828  46.176  1.00  0.00    -0.322 N 
ATOM      2  C   UNL     1      34.993  27.934  46.323  1.00  0.00     0.255 C 
ATOM      3  O   UNL     1      35.770  27.044  46.648  1.00  0.00    -0.269 OA
ATOM      4  H   UNL     1      33.148  28.618  45.759  1.00  0.00     0.170 HD
ENDROOT
BRANCH   1   5
ATOM      5  C   UNL     1      32.820  26.694  46.425  1.00  0.00     0.043 A 
ATOM      6  C   UNL     1      31.360  24.345  46.998  1.00  0.00    -0.027 A 
ATOM      7  C   UNL     1      32.754  24.370  47.130  1.00  0.00     0.008 A 
ATOM      8  C   UNL     1      30.696  25.499  46.543  1.00  0.00     0.045 A 
ATOM      9  C   UNL     1      33.475  25.533  46.849  1.00  0.00     0.026 A 
ATOM     10  C   UNL     1      31.434  26.664  46.265  1.00  0.00     0.052 A 
ATOM     11  C   UNL     1      30.616  23.076  47.311  1.00  0.00     0.046 C 
BRANCH   8  12
ATOM     12  N   UNL     1      29.293  25.499  46.353  1.00  0.00    -0.331 N 
ATOM     13  H   UNL     1      28.820  25.891  47.163  1.00  0.00     0.169 HD
BRANCH  12  14
ATOM     14  C   UNL     1      28.695  25.918  45.204  1.00  0.00     0.187 A 
ATOM     15  N   UNL     1      27.385  25.913  45.076  1.00  0.00    -0.220 NA
ATOM     16  S   UNL     1      29.533  26.469  43.797  1.00  0.00    -0.105 S 
ATOM     17  C   UNL     1      26.993  26.354  43.821  1.00  0.00     0.085 A 
ATOM     18  C   UNL     1      28.040  26.710  42.995  1.00  0.00     0.097 A 
BRANCH  17  19
ATOM     19  C   UNL     1      25.580  26.414  43.460  1.00  0.00     0.019 A 
ATOM     20  C   UNL     1      24.547  26.499  44.399  1.00  0.00     0.013 A 
ATOM     21  C   UNL     1      25.203  26.397  42.117  1.00  0.00     0.121 A 
ATOM     22  C   UNL     1      23.218  26.563  43.973  1.00  0.00     0.021 A 
ATOM     23  N   UNL     1      23.920  26.457  41.673  1.00  0.00    -0.264 NA
ATOM     24  C   UNL     1      22.958  26.539  42.614  1.00  0.00     0.111 A 
ENDBRANCH  17  19
ENDBRANCH  12  14
ENDBRANCH   8  12
ENDBRANCH   1   5
BRANCH   2  25
ATOM     25  C   UNL     1      35.549  29.275  45.990  1.00  0.00     0.040 A 
ATOM     26  C   UNL     1      36.146  30.023  47.009  1.00  0.00     0.014 A 
ATOM     27  C   UNL     1      35.472  29.801  44.694  1.00  0.00     0.014 A 
ATOM     28  C   UNL     1      36.694  31.276  46.727  1.00  0.00     0.006 A 
ATOM     29  C   UNL     1      36.018  31.057  44.416  1.00  0.00     0.006 A 
ATOM     30  C   UNL     1      36.645  31.801  45.427  1.00  0.00    -0.034 A 
BRANCH  30  31
ATOM     31  C   UNL     1      37.227  33.171  45.127  1.00  0.00     0.120 C 
BRANCH  31  32
ATOM     32  N   UNL     1      36.208  34.132  44.664  1.00  0.00    -0.297 NA
ATOM     33  C   UNL     1      36.689  35.515  44.834  1.00  0.00     0.100 C 
ATOM     34  C   UNL     1      34.928  33.965  45.394  1.00  0.00     0.100 C 
ATOM     35  C   UNL     1      36.824  36.004  46.302  1.00  0.00     0.099 C 
ATOM     36  C   UNL     1      34.689  34.917  46.598  1.00  0.00     0.099 C 
ATOM     37  N   UNL     1      35.942  35.306  47.258  1.00  0.00    -0.304 NA
ATOM     38  C   UNL     1      35.701  36.115  48.447  1.00  0.00     0.105 C 
ENDBRANCH  31  32
ENDBRANCH  30  31
ENDBRANCH   2  25
TORSDOF 7
ENDMDL
