MODEL 1
REMARK VINA RESULT:    -9.449      0.000      0.000
REMARK INTER + INTRA:         -11.416
REMARK INTER:                 -11.106
REMARK INTRA:                  -0.310
REMARK UNBOUND:                -0.310
REMARK SMILES CN1C(N)=N[C@](C)(c2cc(NC(=O)c3ccc(F)cn3)ccc2F)CS1(=O)=O
REMARK SMILES IDX 8 1 9 2 10 3 21 4 22 5 23 6 24 7 6 8 25 9 5 10 26 11 3 12
REMARK SMILES IDX 27 13 2 14 28 15 4 16 7 17 1 18 11 21 12 22 13 23 14 25
REMARK SMILES IDX 20 26 15 27 19 28 16 29 17 30 18 31
REMARK H PARENT 4 19 4 20 11 24
ROOT
ATOM      1  C   UNL     1      22.888  10.522  20.587  1.00  0.00     0.018 A 
ATOM      2  C   UNL     1      24.165  10.119  20.976  1.00  0.00     0.035 A 
ATOM      3  C   UNL     1      25.295  10.482  20.280  1.00  0.00     0.042 A 
ATOM      4  C   UNL     1      25.196  11.259  19.133  1.00  0.00     0.029 A 
ATOM      5  C   UNL     1      23.937  11.671  18.733  1.00  0.00     0.042 A 
ATOM      6  C   UNL     1      22.814  11.326  19.459  1.00  0.00     0.129 A 
ATOM      7  F   UNL     1      21.593  11.768  19.062  1.00  0.00    -0.207 F 
ENDROOT
BRANCH   1   8
ATOM      8  C   UNL     1      21.658  10.107  21.378  1.00  0.00     0.105 C 
ATOM      9  C   UNL     1      20.782  11.248  21.847  1.00  0.00     0.195 C 
ATOM     10  N   UNL     1      21.998   9.240  22.505  1.00  0.00    -0.240 NA
ATOM     11  S   UNL     1      21.661  12.285  22.989  1.00  0.00     0.239 S 
ATOM     12  C   UNL     1      22.427   9.721  23.631  1.00  0.00     0.205 C 
ATOM     13  O   UNL     1      20.662  12.886  23.855  1.00  0.00    -0.206 OA
ATOM     14  N   UNL     1      22.497  11.102  23.919  1.00  0.00    -0.243 N 
ATOM     15  O   UNL     1      22.707  13.013  22.342  1.00  0.00    -0.206 OA
ATOM     16  N   UNL     1      22.833   8.917  24.662  1.00  0.00    -0.369 N 
ATOM     17  C   UNL     1      20.787   9.204  20.501  1.00  0.00     0.044 C 
ATOM     18  C   UNL     1      23.104  11.637  25.154  1.00  0.00     0.167 C 
ATOM     19  H   UNL     1      22.820   7.938  24.557  1.00  0.00     0.159 HD
ATOM     20  H   UNL     1      23.136   9.318  25.509  1.00  0.00     0.159 HD
ENDBRANCH   1   8
BRANCH   3  21
ATOM     21  N   UNL     1      26.517  10.008  20.776  1.00  0.00    -0.321 N 
ATOM     22  C   UNL     1      27.650  10.733  21.100  1.00  0.00     0.274 C 
ATOM     23  O   UNL     1      27.810  11.926  20.877  1.00  0.00    -0.267 OA
ATOM     24  H   UNL     1      26.576   9.035  20.912  1.00  0.00     0.170 HD
BRANCH  22  25
ATOM     25  C   UNL     1      28.711   9.970  21.802  1.00  0.00     0.128 A 
ATOM     26  N   UNL     1      29.697  10.690  22.346  1.00  0.00    -0.248 NA
ATOM     27  C   UNL     1      28.637   8.590  21.873  1.00  0.00     0.037 A 
ATOM     28  C   UNL     1      30.672  10.021  22.983  1.00  0.00     0.151 A 
ATOM     29  C   UNL     1      29.653   7.929  22.541  1.00  0.00     0.043 A 
ATOM     30  C   UNL     1      30.690   8.650  23.102  1.00  0.00     0.141 A 
ATOM     31  F   UNL     1      31.693   8.052  23.768  1.00  0.00    -0.205 F 
ENDBRANCH  22  25
ENDBRANCH   3  21
TORSDOF 3
ENDMDL
MODEL 2
REMARK VINA RESULT:    -8.385      4.525      7.556
REMARK INTER + INTRA:         -10.165
REMARK INTER:                  -9.791
REMARK INTRA:                  -0.374
REMARK UNBOUND:                -0.310
REMARK SMILES CN1C(N)=N[C@](C)(c2cc(NC(=O)c3ccc(F)cn3)ccc2F)CS1(=O)=O
REMARK SMILES IDX 8 1 9 2 10 3 21 4 22 5 23 6 24 7 6 8 25 9 5 10 26 11 3 12
REMARK SMILES IDX 27 13 2 14 28 15 4 16 7 17 1 18 11 21 12 22 13 23 14 25
REMARK SMILES IDX 20 26 15 27 19 28 16 29 17 30 18 31
REMARK H PARENT 4 19 4 20 11 24
ROOT
ATOM      1  C   UNL     1      20.468  12.512  27.017  1.00  0.00     0.018 A 
ATOM      2  C   UNL     1      20.891  12.713  25.704  1.00  0.00     0.035 A 
ATOM      3  C   UNL     1      21.238  11.670  24.875  1.00  0.00     0.042 A 
ATOM      4  C   UNL     1      21.198  10.361  25.337  1.00  0.00     0.029 A 
ATOM      5  C   UNL     1      20.778  10.142  26.637  1.00  0.00     0.042 A 
ATOM      6  C   UNL     1      20.402  11.196  27.447  1.00  0.00     0.129 A 
ATOM      7  F   UNL     1      19.964  10.952  28.709  1.00  0.00    -0.207 F 
ENDROOT
BRANCH   1   8
ATOM      8  C   UNL     1      20.088  13.685  27.907  1.00  0.00     0.105 C 
ATOM      9  C   UNL     1      18.750  13.556  28.601  1.00  0.00     0.195 C 
ATOM     10  N   UNL     1      20.164  14.960  27.197  1.00  0.00    -0.240 NA
ATOM     11  S   UNL     1      17.431  13.511  27.415  1.00  0.00     0.239 S 
ATOM     12  C   UNL     1      19.203  15.371  26.429  1.00  0.00     0.205 C 
ATOM     13  O   UNL     1      16.256  14.043  28.082  1.00  0.00    -0.206 OA
ATOM     14  N   UNL     1      17.965  14.704  26.295  1.00  0.00    -0.243 N 
ATOM     15  O   UNL     1      17.444  12.299  26.656  1.00  0.00    -0.206 OA
ATOM     16  N   UNL     1      19.298  16.519  25.689  1.00  0.00    -0.369 N 
ATOM     17  C   UNL     1      21.148  13.838  29.002  1.00  0.00     0.044 C 
ATOM     18  C   UNL     1      16.931  15.114  25.324  1.00  0.00     0.167 C 
ATOM     19  H   UNL     1      20.124  17.055  25.716  1.00  0.00     0.159 HD
ATOM     20  H   UNL     1      18.541  16.810  25.131  1.00  0.00     0.159 HD
ENDBRANCH   1   8
BRANCH   3  21
ATOM     21  N   UNL     1      21.649  12.008  23.579  1.00  0.00    -0.321 N 
ATOM     22  C   UNL     1      22.886  12.468  23.164  1.00  0.00     0.274 C 
ATOM     23  O   UNL     1      23.807  12.781  23.908  1.00  0.00    -0.267 OA
ATOM     24  H   UNL     1      20.970  11.906  22.873  1.00  0.00     0.170 HD
BRANCH  22  25
ATOM     25  C   UNL     1      23.076  12.536  21.695  1.00  0.00     0.128 A 
ATOM     26  N   UNL     1      24.308  12.278  21.244  1.00  0.00    -0.248 NA
ATOM     27  C   UNL     1      22.006  12.844  20.873  1.00  0.00     0.037 A 
ATOM     28  C   UNL     1      24.506  12.338  19.917  1.00  0.00     0.151 A 
ATOM     29  C   UNL     1      22.239  12.892  19.510  1.00  0.00     0.043 A 
ATOM     30  C   UNL     1      23.507  12.642  19.020  1.00  0.00     0.141 A 
ATOM     31  F   UNL     1      23.779  12.668  17.704  1.00  0.00    -0.205 F 
ENDBRANCH  22  25
ENDBRANCH   3  21
TORSDOF 3
ENDMDL
MODEL 3
REMARK VINA RESULT:    -8.195      3.306      6.998
REMARK INTER + INTRA:          -9.943
REMARK INTER:                  -9.649
REMARK INTRA:                  -0.293
REMARK UNBOUND:                -0.310
REMARK SMILES CN1C(N)=N[C@](C)(c2cc(NC(=O)c3ccc(F)cn3)ccc2F)CS1(=O)=O
REMARK SMILES IDX 8 1 9 2 10 3 21 4 22 5 23 6 24 7 6 8 25 9 5 10 26 11 3 12
REMARK SMILES IDX 27 13 2 14 28 15 4 16 7 17 1 18 11 21 12 22 13 23 14 25
REMARK SMILES IDX 20 26 15 27 19 28 16 29 17 30 18 31
REMARK H PARENT 4 19 4 20 11 24
ROOT
ATOM      1  C   UNL     1      24.424  12.090  20.359  1.00  0.00     0.018 A 
ATOM      2  C   UNL     1      24.069  12.208  21.702  1.00  0.00     0.035 A 
ATOM      3  C   UNL     1      23.034  11.490  22.255  1.00  0.00     0.042 A 
ATOM      4  C   UNL     1      22.282  10.623  21.472  1.00  0.00     0.029 A 
ATOM      5  C   UNL     1      22.623  10.490  20.138  1.00  0.00     0.042 A 
ATOM      6  C   UNL     1      23.684  11.194  19.604  1.00  0.00     0.129 A 
ATOM      7  F   UNL     1      24.016  11.024  18.298  1.00  0.00    -0.207 F 
ENDROOT
BRANCH   1   8
ATOM      8  C   UNL     1      25.575  12.896  19.777  1.00  0.00     0.105 C 
ATOM      9  C   UNL     1      26.690  12.075  19.169  1.00  0.00     0.195 C 
ATOM     10  N   UNL     1      26.123  13.847  20.744  1.00  0.00    -0.240 NA
ATOM     11  S   UNL     1      27.484  11.080  20.407  1.00  0.00     0.239 S 
ATOM     12  C   UNL     1      26.977  13.483  21.650  1.00  0.00     0.205 C 
ATOM     13  O   UNL     1      28.849  10.872  19.958  1.00  0.00    -0.206 OA
ATOM     14  N   UNL     1      27.543  12.190  21.721  1.00  0.00    -0.243 N 
ATOM     15  O   UNL     1      26.625  10.039  20.877  1.00  0.00    -0.206 OA
ATOM     16  N   UNL     1      27.429  14.342  22.615  1.00  0.00    -0.369 N 
ATOM     17  C   UNL     1      25.033  13.806  18.671  1.00  0.00     0.044 C 
ATOM     18  C   UNL     1      28.416  11.755  22.829  1.00  0.00     0.167 C 
ATOM     19  H   UNL     1      27.093  15.266  22.648  1.00  0.00     0.159 HD
ATOM     20  H   UNL     1      28.092  14.035  23.276  1.00  0.00     0.159 HD
ENDBRANCH   1   8
BRANCH   3  21
ATOM     21  N   UNL     1      22.778  11.703  23.616  1.00  0.00    -0.321 N 
ATOM     22  C   UNL     1      21.643  12.235  24.202  1.00  0.00     0.274 C 
ATOM     23  O   UNL     1      20.705  12.735  23.594  1.00  0.00    -0.267 OA
ATOM     24  H   UNL     1      23.498  11.442  24.234  1.00  0.00     0.170 HD
BRANCH  22  25
ATOM     25  C   UNL     1      21.589  12.137  25.681  1.00  0.00     0.128 A 
ATOM     26  N   UNL     1      22.353  12.999  26.360  1.00  0.00    -0.248 NA
ATOM     27  C   UNL     1      20.769  11.198  26.282  1.00  0.00     0.037 A 
ATOM     28  C   UNL     1      22.324  12.927  27.701  1.00  0.00     0.151 A 
ATOM     29  C   UNL     1      20.756  11.152  27.665  1.00  0.00     0.043 A 
ATOM     30  C   UNL     1      21.546  12.023  28.389  1.00  0.00     0.141 A 
ATOM     31  F   UNL     1      21.559  12.022  29.733  1.00  0.00    -0.205 F 
ENDBRANCH  22  25
ENDBRANCH   3  21
TORSDOF 3
ENDMDL
MODEL 4
REMARK VINA RESULT:    -8.158      3.745      6.958
REMARK INTER + INTRA:          -9.898
REMARK INTER:                 -10.435
REMARK INTRA:                   0.537
REMARK UNBOUND:                -0.310
REMARK SMILES CN1C(N)=N[C@](C)(c2cc(NC(=O)c3ccc(F)cn3)ccc2F)CS1(=O)=O
REMARK SMILES IDX 8 1 9 2 10 3 21 4 22 5 23 6 24 7 6 8 25 9 5 10 26 11 3 12
REMARK SMILES IDX 27 13 2 14 28 15 4 16 7 17 1 18 11 21 12 22 13 23 14 25
REMARK SMILES IDX 20 26 15 27 19 28 16 29 17 30 18 31
REMARK H PARENT 4 19 4 20 11 24
ROOT
ATOM      1  C   UNL     1      24.381  12.059  20.398  1.00  0.00     0.018 A 
ATOM      2  C   UNL     1      24.004  11.911  21.732  1.00  0.00     0.035 A 
ATOM      3  C   UNL     1      22.749  12.247  22.184  1.00  0.00     0.042 A 
ATOM      4  C   UNL     1      21.806  12.777  21.313  1.00  0.00     0.029 A 
ATOM      5  C   UNL     1      22.161  12.929  19.984  1.00  0.00     0.042 A 
ATOM      6  C   UNL     1      23.413  12.557  19.538  1.00  0.00     0.129 A 
ATOM      7  F   UNL     1      23.727  12.688  18.223  1.00  0.00    -0.207 F 
ENDROOT
BRANCH   1   8
ATOM      8  C   UNL     1      25.775  11.675  19.927  1.00  0.00     0.105 C 
ATOM      9  C   UNL     1      26.880  11.922  20.930  1.00  0.00     0.195 C 
ATOM     10  N   UNL     1      26.112  12.294  18.646  1.00  0.00    -0.240 NA
ATOM     11  S   UNL     1      27.038  13.656  21.275  1.00  0.00     0.239 S 
ATOM     12  C   UNL     1      26.540  13.517  18.572  1.00  0.00     0.205 C 
ATOM     13  O   UNL     1      28.422  13.878  21.656  1.00  0.00    -0.206 OA
ATOM     14  N   UNL     1      26.832  14.317  19.699  1.00  0.00    -0.243 N 
ATOM     15  O   UNL     1      25.914  14.154  22.004  1.00  0.00    -0.206 OA
ATOM     16  N   UNL     1      26.775  14.137  17.374  1.00  0.00    -0.369 N 
ATOM     17  C   UNL     1      25.792  10.179  19.600  1.00  0.00     0.044 C 
ATOM     18  C   UNL     1      27.198  15.744  19.599  1.00  0.00     0.167 C 
ATOM     19  H   UNL     1      26.602  13.660  16.531  1.00  0.00     0.159 HD
ATOM     20  H   UNL     1      27.117  15.060  17.356  1.00  0.00     0.159 HD
ENDBRANCH   1   8
BRANCH   3  21
ATOM     21  N   UNL     1      22.500  12.051  23.549  1.00  0.00    -0.321 N 
ATOM     22  C   UNL     1      23.223  12.526  24.629  1.00  0.00     0.274 C 
ATOM     23  O   UNL     1      24.300  13.105  24.556  1.00  0.00    -0.267 OA
ATOM     24  H   UNL     1      21.710  11.506  23.767  1.00  0.00     0.170 HD
BRANCH  22  25
ATOM     25  C   UNL     1      22.588  12.326  25.954  1.00  0.00     0.128 A 
ATOM     26  N   UNL     1      23.123  13.002  26.976  1.00  0.00    -0.248 NA
ATOM     27  C   UNL     1      21.495  11.485  26.076  1.00  0.00     0.037 A 
ATOM     28  C   UNL     1      22.567  12.833  28.187  1.00  0.00     0.151 A 
ATOM     29  C   UNL     1      20.941  11.337  27.335  1.00  0.00     0.043 A 
ATOM     30  C   UNL     1      21.483  12.014  28.410  1.00  0.00     0.141 A 
ATOM     31  F   UNL     1      20.973  11.908  29.649  1.00  0.00    -0.205 F 
ENDBRANCH  22  25
ENDBRANCH   3  21
TORSDOF 3
ENDMDL
MODEL 5
REMARK VINA RESULT:    -8.078      3.594      7.294
REMARK INTER + INTRA:          -9.805
REMARK INTER:                  -9.499
REMARK INTRA:                  -0.307
REMARK UNBOUND:                -0.310
REMARK SMILES CN1C(N)=N[C@](C)(c2cc(NC(=O)c3ccc(F)cn3)ccc2F)CS1(=O)=O
REMARK SMILES IDX 8 1 9 2 10 3 21 4 22 5 23 6 24 7 6 8 25 9 5 10 26 11 3 12
REMARK SMILES IDX 27 13 2 14 28 15 4 16 7 17 1 18 11 21 12 22 13 23 14 25
REMARK SMILES IDX 20 26 15 27 19 28 16 29 17 30 18 31
REMARK H PARENT 4 19 4 20 11 24
ROOT
ATOM      1  C   UNL     1      22.308  11.667  20.933  1.00  0.00     0.018 A 
ATOM      2  C   UNL     1      22.266  12.023  22.281  1.00  0.00     0.035 A 
ATOM      3  C   UNL     1      21.520  11.326  23.204  1.00  0.00     0.042 A 
ATOM      4  C   UNL     1      20.753  10.237  22.809  1.00  0.00     0.029 A 
ATOM      5  C   UNL     1      20.785   9.867  21.476  1.00  0.00     0.042 A 
ATOM      6  C   UNL     1      21.563  10.557  20.568  1.00  0.00     0.129 A 
ATOM      7  F   UNL     1      21.600  10.155  19.271  1.00  0.00    -0.207 F 
ENDROOT
BRANCH   1   8
ATOM      8  C   UNL     1      23.145  12.456  19.938  1.00  0.00     0.105 C 
ATOM      9  C   UNL     1      23.947  11.617  18.969  1.00  0.00     0.195 C 
ATOM     10  N   UNL     1      24.014  13.427  20.601  1.00  0.00    -0.240 NA
ATOM     11  S   UNL     1      25.159  10.650  19.831  1.00  0.00     0.239 S 
ATOM     12  C   UNL     1      25.151  13.081  21.119  1.00  0.00     0.205 C 
ATOM     13  O   UNL     1      26.251  10.427  18.899  1.00  0.00    -0.206 OA
ATOM     14  N   UNL     1      25.710  11.789  20.998  1.00  0.00    -0.243 N 
ATOM     15  O   UNL     1      24.552   9.622  20.617  1.00  0.00    -0.206 OA
ATOM     16  N   UNL     1      25.933  13.961  21.819  1.00  0.00    -0.369 N 
ATOM     17  C   UNL     1      22.215  13.341  19.103  1.00  0.00     0.044 C 
ATOM     18  C   UNL     1      26.943  11.377  21.697  1.00  0.00     0.167 C 
ATOM     19  H   UNL     1      25.629  14.887  21.957  1.00  0.00     0.159 HD
ATOM     20  H   UNL     1      26.800  13.668  22.183  1.00  0.00     0.159 HD
ENDBRANCH   1   8
BRANCH   3  21
ATOM     21  N   UNL     1      21.563  11.789  24.525  1.00  0.00    -0.321 N 
ATOM     22  C   UNL     1      20.703  12.673  25.151  1.00  0.00     0.274 C 
ATOM     23  O   UNL     1      19.816  13.307  24.595  1.00  0.00    -0.267 OA
ATOM     24  H   UNL     1      22.300  11.441  25.078  1.00  0.00     0.170 HD
BRANCH  22  25
ATOM     25  C   UNL     1      20.887  12.804  26.617  1.00  0.00     0.128 A 
ATOM     26  N   UNL     1      19.832  13.246  27.310  1.00  0.00    -0.248 NA
ATOM     27  C   UNL     1      22.099  12.466  27.195  1.00  0.00     0.037 A 
ATOM     28  C   UNL     1      19.977  13.377  28.639  1.00  0.00     0.151 A 
ATOM     29  C   UNL     1      22.214  12.606  28.566  1.00  0.00     0.043 A 
ATOM     30  C   UNL     1      21.143  13.072  29.303  1.00  0.00     0.141 A 
ATOM     31  F   UNL     1      21.205  13.215  30.638  1.00  0.00    -0.205 F 
ENDBRANCH  22  25
ENDBRANCH   3  21
TORSDOF 3
ENDMDL
MODEL 6
REMARK VINA RESULT:    -8.039      3.696      7.419
REMARK INTER + INTRA:          -9.759
REMARK INTER:                  -9.395
REMARK INTRA:                  -0.364
REMARK UNBOUND:                -0.310
REMARK SMILES CN1C(N)=N[C@](C)(c2cc(NC(=O)c3ccc(F)cn3)ccc2F)CS1(=O)=O
REMARK SMILES IDX 8 1 9 2 10 3 21 4 22 5 23 6 24 7 6 8 25 9 5 10 26 11 3 12
REMARK SMILES IDX 27 13 2 14 28 15 4 16 7 17 1 18 11 21 12 22 13 23 14 25
REMARK SMILES IDX 20 26 15 27 19 28 16 29 17 30 18 31
REMARK H PARENT 4 19 4 20 11 24
ROOT
ATOM      1  C   UNL     1      25.977  12.675  20.370  1.00  0.00     0.018 A 
ATOM      2  C   UNL     1      25.052  12.665  21.413  1.00  0.00     0.035 A 
ATOM      3  C   UNL     1      24.165  11.630  21.600  1.00  0.00     0.042 A 
ATOM      4  C   UNL     1      24.147  10.551  20.724  1.00  0.00     0.029 A 
ATOM      5  C   UNL     1      25.060  10.543  19.685  1.00  0.00     0.042 A 
ATOM      6  C   UNL     1      25.966  11.573  19.529  1.00  0.00     0.129 A 
ATOM      7  F   UNL     1      26.872  11.526  18.518  1.00  0.00    -0.207 F 
ENDROOT
BRANCH   1   8
ATOM      8  C   UNL     1      26.947  13.832  20.192  1.00  0.00     0.105 C 
ATOM      9  C   UNL     1      28.410  13.449  20.202  1.00  0.00     0.195 C 
ATOM     10  N   UNL     1      26.703  14.906  21.153  1.00  0.00    -0.240 NA
ATOM     11  S   UNL     1      28.873  12.779  21.779  1.00  0.00     0.239 S 
ATOM     12  C   UNL     1      27.159  14.851  22.367  1.00  0.00     0.205 C 
ATOM     13  O   UNL     1      30.288  13.057  21.948  1.00  0.00    -0.206 OA
ATOM     14  N   UNL     1      28.016  13.832  22.839  1.00  0.00    -0.243 N 
ATOM     15  O   UNL     1      28.271  11.502  22.007  1.00  0.00    -0.206 OA
ATOM     16  N   UNL     1      26.864  15.806  23.302  1.00  0.00    -0.369 N 
ATOM     17  C   UNL     1      26.669  14.508  18.846  1.00  0.00     0.044 C 
ATOM     18  C   UNL     1      28.425  13.715  24.252  1.00  0.00     0.167 C 
ATOM     19  H   UNL     1      26.273  16.558  23.068  1.00  0.00     0.159 HD
ATOM     20  H   UNL     1      27.242  15.741  24.209  1.00  0.00     0.159 HD
ENDBRANCH   1   8
BRANCH   3  21
ATOM     21  N   UNL     1      23.286  11.744  22.685  1.00  0.00    -0.321 N 
ATOM     22  C   UNL     1      22.037  12.338  22.718  1.00  0.00     0.274 C 
ATOM     23  O   UNL     1      21.543  12.989  21.807  1.00  0.00    -0.267 OA
ATOM     24  H   UNL     1      23.597  11.351  23.533  1.00  0.00     0.170 HD
BRANCH  22  25
ATOM     25  C   UNL     1      21.261  12.113  23.961  1.00  0.00     0.128 A 
ATOM     26  N   UNL     1      21.722  12.710  25.065  1.00  0.00    -0.248 NA
ATOM     27  C   UNL     1      20.121  11.327  23.931  1.00  0.00     0.037 A 
ATOM     28  C   UNL     1      21.037  12.517  26.204  1.00  0.00     0.151 A 
ATOM     29  C   UNL     1      19.435  11.151  25.120  1.00  0.00     0.043 A 
ATOM     30  C   UNL     1      19.897  11.749  26.277  1.00  0.00     0.141 A 
ATOM     31  F   UNL     1      19.259  11.614  27.451  1.00  0.00    -0.205 F 
ENDBRANCH  22  25
ENDBRANCH   3  21
TORSDOF 3
ENDMDL
MODEL 7
REMARK VINA RESULT:    -7.964      4.524      6.450
REMARK INTER + INTRA:          -9.670
REMARK INTER:                  -9.977
REMARK INTRA:                   0.306
REMARK UNBOUND:                -0.310
REMARK SMILES CN1C(N)=N[C@](C)(c2cc(NC(=O)c3ccc(F)cn3)ccc2F)CS1(=O)=O
REMARK SMILES IDX 8 1 9 2 10 3 21 4 22 5 23 6 24 7 6 8 25 9 5 10 26 11 3 12
REMARK SMILES IDX 27 13 2 14 28 15 4 16 7 17 1 18 11 21 12 22 13 23 14 25
REMARK SMILES IDX 20 26 15 27 19 28 16 29 17 30 18 31
REMARK H PARENT 4 19 4 20 11 24
ROOT
ATOM      1  C   UNL     1      19.370  12.191  25.044  1.00  0.00     0.018 A 
ATOM      2  C   UNL     1      20.255  12.624  24.058  1.00  0.00     0.035 A 
ATOM      3  C   UNL     1      20.730  11.786  23.076  1.00  0.00     0.042 A 
ATOM      4  C   UNL     1      20.352  10.449  23.048  1.00  0.00     0.029 A 
ATOM      5  C   UNL     1      19.471  10.003  24.017  1.00  0.00     0.042 A 
ATOM      6  C   UNL     1      18.978  10.863  24.978  1.00  0.00     0.129 A 
ATOM      7  F   UNL     1      18.092  10.407  25.900  1.00  0.00    -0.207 F 
ENDROOT
BRANCH   1   8
ATOM      8  C   UNL     1      18.861  13.143  26.115  1.00  0.00     0.105 C 
ATOM      9  C   UNL     1      19.761  14.323  26.404  1.00  0.00     0.195 C 
ATOM     10  N   UNL     1      18.532  12.446  27.358  1.00  0.00    -0.240 NA
ATOM     11  S   UNL     1      21.317  13.779  27.062  1.00  0.00     0.239 S 
ATOM     12  C   UNL     1      19.445  12.131  28.224  1.00  0.00     0.205 C 
ATOM     13  O   UNL     1      21.817  14.860  27.893  1.00  0.00    -0.206 OA
ATOM     14  N   UNL     1      20.798  12.522  28.118  1.00  0.00    -0.243 N 
ATOM     15  O   UNL     1      22.097  13.097  26.076  1.00  0.00    -0.206 OA
ATOM     16  N   UNL     1      19.165  11.401  29.348  1.00  0.00    -0.369 N 
ATOM     17  C   UNL     1      17.508  13.708  25.672  1.00  0.00     0.044 C 
ATOM     18  C   UNL     1      21.848  12.052  29.044  1.00  0.00     0.167 C 
ATOM     19  H   UNL     1      18.248  11.082  29.512  1.00  0.00     0.159 HD
ATOM     20  H   UNL     1      19.880  11.196  29.993  1.00  0.00     0.159 HD
ENDBRANCH   1   8
BRANCH   3  21
ATOM     21  N   UNL     1      21.617  12.346  22.147  1.00  0.00    -0.321 N 
ATOM     22  C   UNL     1      22.989  12.188  22.068  1.00  0.00     0.274 C 
ATOM     23  O   UNL     1      23.681  11.616  22.900  1.00  0.00    -0.267 OA
ATOM     24  H   UNL     1      21.211  12.927  21.463  1.00  0.00     0.170 HD
BRANCH  22  25
ATOM     25  C   UNL     1      23.621  12.740  20.844  1.00  0.00     0.128 A 
ATOM     26  N   UNL     1      24.920  13.042  20.933  1.00  0.00    -0.248 NA
ATOM     27  C   UNL     1      22.870  12.906  19.694  1.00  0.00     0.037 A 
ATOM     28  C   UNL     1      25.513  13.547  19.839  1.00  0.00     0.151 A 
ATOM     29  C   UNL     1      23.510  13.423  18.581  1.00  0.00     0.043 A 
ATOM     30  C   UNL     1      24.850  13.755  18.651  1.00  0.00     0.141 A 
ATOM     31  F   UNL     1      25.516  14.251  17.595  1.00  0.00    -0.205 F 
ENDBRANCH  22  25
ENDBRANCH   3  21
TORSDOF 3
ENDMDL
MODEL 8
REMARK VINA RESULT:    -7.918      4.973      7.726
REMARK INTER + INTRA:          -9.617
REMARK INTER:                  -9.443
REMARK INTRA:                  -0.174
REMARK UNBOUND:                -0.310
REMARK SMILES CN1C(N)=N[C@](C)(c2cc(NC(=O)c3ccc(F)cn3)ccc2F)CS1(=O)=O
REMARK SMILES IDX 8 1 9 2 10 3 21 4 22 5 23 6 24 7 6 8 25 9 5 10 26 11 3 12
REMARK SMILES IDX 27 13 2 14 28 15 4 16 7 17 1 18 11 21 12 22 13 23 14 25
REMARK SMILES IDX 20 26 15 27 19 28 16 29 17 30 18 31
REMARK H PARENT 4 19 4 20 11 24
ROOT
ATOM      1  C   UNL     1      20.516  12.522  26.802  1.00  0.00     0.018 A 
ATOM      2  C   UNL     1      21.006  12.575  25.499  1.00  0.00     0.035 A 
ATOM      3  C   UNL     1      21.413  11.450  24.818  1.00  0.00     0.042 A 
ATOM      4  C   UNL     1      21.366  10.203  25.429  1.00  0.00     0.029 A 
ATOM      5  C   UNL     1      20.879  10.131  26.722  1.00  0.00     0.042 A 
ATOM      6  C   UNL     1      20.445  11.264  27.381  1.00  0.00     0.129 A 
ATOM      7  F   UNL     1      19.943  11.162  28.639  1.00  0.00    -0.207 F 
ENDROOT
BRANCH   1   8
ATOM      8  C   UNL     1      20.072  13.783  27.527  1.00  0.00     0.105 C 
ATOM      9  C   UNL     1      18.807  13.641  28.344  1.00  0.00     0.195 C 
ATOM     10  N   UNL     1      19.958  14.925  26.621  1.00  0.00    -0.240 NA
ATOM     11  S   UNL     1      17.422  13.273  27.297  1.00  0.00     0.239 S 
ATOM     12  C   UNL     1      18.907  15.107  25.882  1.00  0.00     0.205 C 
ATOM     13  O   UNL     1      16.244  13.791  27.970  1.00  0.00    -0.206 OA
ATOM     14  N   UNL     1      17.743  14.311  25.961  1.00  0.00    -0.243 N 
ATOM     15  O   UNL     1      17.516  11.959  26.740  1.00  0.00    -0.206 OA
ATOM     16  N   UNL     1      18.825  16.121  24.966  1.00  0.00    -0.369 N 
ATOM     17  C   UNL     1      21.181  14.217  28.488  1.00  0.00     0.044 C 
ATOM     18  C   UNL     1      16.606  14.452  25.031  1.00  0.00     0.167 C 
ATOM     19  H   UNL     1      19.586  16.732  24.838  1.00  0.00     0.159 HD
ATOM     20  H   UNL     1      18.004  16.241  24.436  1.00  0.00     0.159 HD
ENDBRANCH   1   8
BRANCH   3  21
ATOM     21  N   UNL     1      21.888  11.642  23.514  1.00  0.00    -0.321 N 
ATOM     22  C   UNL     1      21.347  11.181  22.328  1.00  0.00     0.274 C 
ATOM     23  O   UNL     1      20.407  10.401  22.239  1.00  0.00    -0.267 OA
ATOM     24  H   UNL     1      22.713  12.174  23.432  1.00  0.00     0.170 HD
BRANCH  22  25
ATOM     25  C   UNL     1      21.963  11.728  21.095  1.00  0.00     0.128 A 
ATOM     26  N   UNL     1      22.666  10.868  20.351  1.00  0.00    -0.248 NA
ATOM     27  C   UNL     1      21.784  13.061  20.767  1.00  0.00     0.037 A 
ATOM     28  C   UNL     1      23.238  11.343  19.232  1.00  0.00     0.151 A 
ATOM     29  C   UNL     1      22.380  13.519  19.604  1.00  0.00     0.043 A 
ATOM     30  C   UNL     1      23.122  12.653  18.825  1.00  0.00     0.141 A 
ATOM     31  F   UNL     1      23.711  13.049  17.684  1.00  0.00    -0.205 F 
ENDBRANCH  22  25
ENDBRANCH   3  21
TORSDOF 3
ENDMDL
MODEL 9
REMARK VINA RESULT:    -7.741      4.476      6.515
REMARK INTER + INTRA:          -9.409
REMARK INTER:                  -9.713
REMARK INTRA:                   0.304
REMARK UNBOUND:                -0.310
REMARK SMILES CN1C(N)=N[C@](C)(c2cc(NC(=O)c3ccc(F)cn3)ccc2F)CS1(=O)=O
REMARK SMILES IDX 8 1 9 2 10 3 21 4 22 5 23 6 24 7 6 8 25 9 5 10 26 11 3 12
REMARK SMILES IDX 27 13 2 14 28 15 4 16 7 17 1 18 11 21 12 22 13 23 14 25
REMARK SMILES IDX 20 26 15 27 19 28 16 29 17 30 18 31
REMARK H PARENT 4 19 4 20 11 24
ROOT
ATOM      1  C   UNL     1      19.138  12.861  25.231  1.00  0.00     0.018 A 
ATOM      2  C   UNL     1      20.215  13.044  24.364  1.00  0.00     0.035 A 
ATOM      3  C   UNL     1      20.773  12.005  23.654  1.00  0.00     0.042 A 
ATOM      4  C   UNL     1      20.285  10.712  23.798  1.00  0.00     0.029 A 
ATOM      5  C   UNL     1      19.215  10.513  24.652  1.00  0.00     0.042 A 
ATOM      6  C   UNL     1      18.645  11.570  25.334  1.00  0.00     0.129 A 
ATOM      7  F   UNL     1      17.576  11.352  26.143  1.00  0.00    -0.207 F 
ENDROOT
BRANCH   1   8
ATOM      8  C   UNL     1      18.542  14.030  25.999  1.00  0.00     0.105 C 
ATOM      9  C   UNL     1      19.541  15.061  26.475  1.00  0.00     0.195 C 
ATOM     10  N   UNL     1      17.709  13.585  27.115  1.00  0.00    -0.240 NA
ATOM     11  S   UNL     1      20.669  14.347  27.646  1.00  0.00     0.239 S 
ATOM     12  C   UNL     1      18.225  13.239  28.254  1.00  0.00     0.205 C 
ATOM     13  O   UNL     1      21.109  15.429  28.508  1.00  0.00    -0.206 OA
ATOM     14  N   UNL     1      19.597  13.365  28.567  1.00  0.00    -0.243 N 
ATOM     15  O   UNL     1      21.547  13.406  27.025  1.00  0.00    -0.206 OA
ATOM     16  N   UNL     1      17.466  12.737  29.277  1.00  0.00    -0.369 N 
ATOM     17  C   UNL     1      17.543  14.758  25.095  1.00  0.00     0.044 C 
ATOM     18  C   UNL     1      20.187  12.852  29.819  1.00  0.00     0.167 C 
ATOM     19  H   UNL     1      16.497  12.612  29.156  1.00  0.00     0.159 HD
ATOM     20  H   UNL     1      17.889  12.501  30.135  1.00  0.00     0.159 HD
ENDBRANCH   1   8
BRANCH   3  21
ATOM     21  N   UNL     1      21.852  12.324  22.819  1.00  0.00    -0.321 N 
ATOM     22  C   UNL     1      23.171  12.547  23.171  1.00  0.00     0.274 C 
ATOM     23  O   UNL     1      23.589  12.630  24.318  1.00  0.00    -0.267 OA
ATOM     24  H   UNL     1      21.645  12.397  21.859  1.00  0.00     0.170 HD
BRANCH  22  25
ATOM     25  C   UNL     1      24.120  12.655  22.036  1.00  0.00     0.128 A 
ATOM     26  N   UNL     1      25.361  13.050  22.337  1.00  0.00    -0.248 NA
ATOM     27  C   UNL     1      23.702  12.344  20.754  1.00  0.00     0.037 A 
ATOM     28  C   UNL     1      26.237  13.159  21.325  1.00  0.00     0.151 A 
ATOM     29  C   UNL     1      24.629  12.460  19.733  1.00  0.00     0.043 A 
ATOM     30  C   UNL     1      25.915  12.878  20.017  1.00  0.00     0.141 A 
ATOM     31  F   UNL     1      26.851  12.996  19.060  1.00  0.00    -0.205 F 
ENDBRANCH  22  25
ENDBRANCH   3  21
TORSDOF 3
ENDMDL
MODEL 10
REMARK VINA RESULT:    -7.663      3.968      4.630
REMARK INTER + INTRA:          -9.317
REMARK INTER:                  -9.680
REMARK INTRA:                   0.364
REMARK UNBOUND:                -0.310
REMARK SMILES CN1C(N)=N[C@](C)(c2cc(NC(=O)c3ccc(F)cn3)ccc2F)CS1(=O)=O
REMARK SMILES IDX 8 1 9 2 10 3 21 4 22 5 23 6 24 7 6 8 25 9 5 10 26 11 3 12
REMARK SMILES IDX 27 13 2 14 28 15 4 16 7 17 1 18 11 21 12 22 13 23 14 25
REMARK SMILES IDX 20 26 15 27 19 28 16 29 17 30 18 31
REMARK H PARENT 4 19 4 20 11 24
ROOT
ATOM      1  C   UNL     1      24.120  12.038  20.710  1.00  0.00     0.018 A 
ATOM      2  C   UNL     1      24.819  12.896  21.557  1.00  0.00     0.035 A 
ATOM      3  C   UNL     1      26.155  12.724  21.841  1.00  0.00     0.042 A 
ATOM      4  C   UNL     1      26.856  11.654  21.299  1.00  0.00     0.029 A 
ATOM      5  C   UNL     1      26.179  10.794  20.454  1.00  0.00     0.042 A 
ATOM      6  C   UNL     1      24.847  10.997  20.152  1.00  0.00     0.129 A 
ATOM      7  F   UNL     1      24.213  10.155  19.297  1.00  0.00    -0.207 F 
ENDROOT
BRANCH   1   8
ATOM      8  C   UNL     1      22.644  12.257  20.413  1.00  0.00     0.105 C 
ATOM      9  C   UNL     1      21.886  13.031  21.469  1.00  0.00     0.195 C 
ATOM     10  N   UNL     1      21.952  11.003  20.116  1.00  0.00    -0.240 NA
ATOM     11  S   UNL     1      21.857  12.137  23.002  1.00  0.00     0.239 S 
ATOM     12  C   UNL     1      21.536  10.215  21.058  1.00  0.00     0.205 C 
ATOM     13  O   UNL     1      20.650  12.547  23.697  1.00  0.00    -0.206 OA
ATOM     14  N   UNL     1      21.598  10.532  22.433  1.00  0.00    -0.243 N 
ATOM     15  O   UNL     1      23.152  12.081  23.605  1.00  0.00    -0.206 OA
ATOM     16  N   UNL     1      20.966   8.998  20.795  1.00  0.00    -0.369 N 
ATOM     17  C   UNL     1      22.515  13.039  19.103  1.00  0.00     0.044 C 
ATOM     18  C   UNL     1      21.235   9.576  23.498  1.00  0.00     0.167 C 
ATOM     19  H   UNL     1      20.878   8.688  19.864  1.00  0.00     0.159 HD
ATOM     20  H   UNL     1      20.645   8.434  21.535  1.00  0.00     0.159 HD
ENDBRANCH   1   8
BRANCH   3  21
ATOM     21  N   UNL     1      26.737  13.657  22.709  1.00  0.00    -0.321 N 
ATOM     22  C   UNL     1      26.690  13.687  24.091  1.00  0.00     0.274 C 
ATOM     23  O   UNL     1      26.003  12.951  24.789  1.00  0.00    -0.267 OA
ATOM     24  H   UNL     1      27.245  14.383  22.281  1.00  0.00     0.170 HD
BRANCH  22  25
ATOM     25  C   UNL     1      27.583  14.681  24.734  1.00  0.00     0.128 A 
ATOM     26  N   UNL     1      28.536  14.191  25.534  1.00  0.00    -0.248 NA
ATOM     27  C   UNL     1      27.409  16.031  24.482  1.00  0.00     0.037 A 
ATOM     28  C   UNL     1      29.355  15.073  26.131  1.00  0.00     0.151 A 
ATOM     29  C   UNL     1      28.272  16.914  25.107  1.00  0.00     0.043 A 
ATOM     30  C   UNL     1      29.258  16.434  25.948  1.00  0.00     0.141 A 
ATOM     31  F   UNL     1      30.125  17.252  26.568  1.00  0.00    -0.205 F 
ENDBRANCH  22  25
ENDBRANCH   3  21
TORSDOF 3
ENDMDL
MODEL 11
REMARK VINA RESULT:    -7.460      3.583      6.678
REMARK INTER + INTRA:          -9.078
REMARK INTER:                  -9.063
REMARK INTRA:                  -0.015
REMARK UNBOUND:                -0.310
REMARK SMILES CN1C(N)=N[C@](C)(c2cc(NC(=O)c3ccc(F)cn3)ccc2F)CS1(=O)=O
REMARK SMILES IDX 8 1 9 2 10 3 21 4 22 5 23 6 24 7 6 8 25 9 5 10 26 11 3 12
REMARK SMILES IDX 27 13 2 14 28 15 4 16 7 17 1 18 11 21 12 22 13 23 14 25
REMARK SMILES IDX 20 26 15 27 19 28 16 29 17 30 18 31
REMARK H PARENT 4 19 4 20 11 24
ROOT
ATOM      1  C   UNL     1      26.317  12.223  21.497  1.00  0.00     0.018 A 
ATOM      2  C   UNL     1      25.444  12.212  22.584  1.00  0.00     0.035 A 
ATOM      3  C   UNL     1      25.462  13.188  23.553  1.00  0.00     0.042 A 
ATOM      4  C   UNL     1      26.384  14.226  23.489  1.00  0.00     0.029 A 
ATOM      5  C   UNL     1      27.256  14.255  22.416  1.00  0.00     0.042 A 
ATOM      6  C   UNL     1      27.205  13.286  21.434  1.00  0.00     0.129 A 
ATOM      7  F   UNL     1      28.053  13.354  20.375  1.00  0.00    -0.207 F 
ENDROOT
BRANCH   1   8
ATOM      8  C   UNL     1      26.271  11.131  20.440  1.00  0.00     0.105 C 
ATOM      9  C   UNL     1      25.968  11.609  19.037  1.00  0.00     0.195 C 
ATOM     10  N   UNL     1      25.359  10.049  20.809  1.00  0.00    -0.240 NA
ATOM     11  S   UNL     1      24.342  12.316  18.953  1.00  0.00     0.239 S 
ATOM     12  C   UNL     1      24.080  10.140  20.618  1.00  0.00     0.205 C 
ATOM     13  O   UNL     1      23.881  12.132  17.589  1.00  0.00    -0.206 OA
ATOM     14  N   UNL     1      23.461  11.215  19.941  1.00  0.00    -0.243 N 
ATOM     15  O   UNL     1      24.267  13.552  19.667  1.00  0.00    -0.206 OA
ATOM     16  N   UNL     1      23.207   9.173  21.039  1.00  0.00    -0.369 N 
ATOM     17  C   UNL     1      27.632  10.431  20.392  1.00  0.00     0.044 C 
ATOM     18  C   UNL     1      21.996  11.367  19.840  1.00  0.00     0.167 C 
ATOM     19  H   UNL     1      23.543   8.383  21.520  1.00  0.00     0.159 HD
ATOM     20  H   UNL     1      22.243   9.268  20.860  1.00  0.00     0.159 HD
ENDBRANCH   1   8
BRANCH   3  21
ATOM     21  N   UNL     1      24.533  13.057  24.594  1.00  0.00    -0.321 N 
ATOM     22  C   UNL     1      23.273  12.488  24.551  1.00  0.00     0.274 C 
ATOM     23  O   UNL     1      22.704  12.112  23.534  1.00  0.00    -0.267 OA
ATOM     24  H   UNL     1      24.813  13.415  25.467  1.00  0.00     0.170 HD
BRANCH  22  25
ATOM     25  C   UNL     1      22.614  12.309  25.867  1.00  0.00     0.128 A 
ATOM     26  N   UNL     1      23.146  12.981  26.893  1.00  0.00    -0.248 NA
ATOM     27  C   UNL     1      21.504  11.489  25.978  1.00  0.00     0.037 A 
ATOM     28  C   UNL     1      22.569  12.831  28.096  1.00  0.00     0.151 A 
ATOM     29  C   UNL     1      20.928  11.360  27.230  1.00  0.00     0.043 A 
ATOM     30  C   UNL     1      21.467  12.034  28.308  1.00  0.00     0.141 A 
ATOM     31  F   UNL     1      20.936  11.946  29.540  1.00  0.00    -0.205 F 
ENDBRANCH  22  25
ENDBRANCH   3  21
TORSDOF 3
ENDMDL
MODEL 12
REMARK VINA RESULT:    -7.395      3.583      7.731
REMARK INTER + INTRA:          -9.001
REMARK INTER:                  -8.627
REMARK INTRA:                  -0.374
REMARK UNBOUND:                -0.310
REMARK SMILES CN1C(N)=N[C@](C)(c2cc(NC(=O)c3ccc(F)cn3)ccc2F)CS1(=O)=O
REMARK SMILES IDX 8 1 9 2 10 3 21 4 22 5 23 6 24 7 6 8 25 9 5 10 26 11 3 12
REMARK SMILES IDX 27 13 2 14 28 15 4 16 7 17 1 18 11 21 12 22 13 23 14 25
REMARK SMILES IDX 20 26 15 27 19 28 16 29 17 30 18 31
REMARK H PARENT 4 19 4 20 11 24
ROOT
ATOM      1  C   UNL     1      26.231  12.363  21.760  1.00  0.00     0.018 A 
ATOM      2  C   UNL     1      24.906  12.296  22.188  1.00  0.00     0.035 A 
ATOM      3  C   UNL     1      24.490  12.839  23.383  1.00  0.00     0.042 A 
ATOM      4  C   UNL     1      25.401  13.464  24.226  1.00  0.00     0.029 A 
ATOM      5  C   UNL     1      26.719  13.543  23.815  1.00  0.00     0.042 A 
ATOM      6  C   UNL     1      27.116  13.022  22.599  1.00  0.00     0.129 A 
ATOM      7  F   UNL     1      28.410  13.138  22.206  1.00  0.00    -0.207 F 
ENDROOT
BRANCH   1   8
ATOM      8  C   UNL     1      26.658  11.755  20.433  1.00  0.00     0.105 C 
ATOM      9  C   UNL     1      27.314  12.719  19.468  1.00  0.00     0.195 C 
ATOM     10  N   UNL     1      25.560  11.053  19.771  1.00  0.00    -0.240 NA
ATOM     11  S   UNL     1      26.174  13.988  18.978  1.00  0.00     0.239 S 
ATOM     12  C   UNL     1      24.669  11.686  19.072  1.00  0.00     0.205 C 
ATOM     13  O   UNL     1      26.585  14.425  17.656  1.00  0.00    -0.206 OA
ATOM     14  N   UNL     1      24.732  13.067  18.785  1.00  0.00    -0.243 N 
ATOM     15  O   UNL     1      25.872  14.873  20.059  1.00  0.00    -0.206 OA
ATOM     16  N   UNL     1      23.587  11.052  18.522  1.00  0.00    -0.369 N 
ATOM     17  C   UNL     1      27.667  10.636  20.704  1.00  0.00     0.044 C 
ATOM     18  C   UNL     1      23.649  13.796  18.095  1.00  0.00     0.167 C 
ATOM     19  H   UNL     1      23.456  10.087  18.666  1.00  0.00     0.159 HD
ATOM     20  H   UNL     1      22.940  11.562  17.982  1.00  0.00     0.159 HD
ENDBRANCH   1   8
BRANCH   3  21
ATOM     21  N   UNL     1      23.132  12.700  23.697  1.00  0.00    -0.321 N 
ATOM     22  C   UNL     1      22.509  11.662  24.365  1.00  0.00     0.274 C 
ATOM     23  O   UNL     1      23.044  10.609  24.686  1.00  0.00    -0.267 OA
ATOM     24  H   UNL     1      22.547  13.436  23.404  1.00  0.00     0.170 HD
BRANCH  22  25
ATOM     25  C   UNL     1      21.092  11.904  24.731  1.00  0.00     0.128 A 
ATOM     26  N   UNL     1      20.798  13.126  25.189  1.00  0.00    -0.248 NA
ATOM     27  C   UNL     1      20.157  10.895  24.580  1.00  0.00     0.037 A 
ATOM     28  C   UNL     1      19.522  13.368  25.530  1.00  0.00     0.151 A 
ATOM     29  C   UNL     1      18.849  11.177  24.935  1.00  0.00     0.043 A 
ATOM     30  C   UNL     1      18.523  12.428  25.422  1.00  0.00     0.141 A 
ATOM     31  F   UNL     1      17.265  12.750  25.770  1.00  0.00    -0.205 F 
ENDBRANCH  22  25
ENDBRANCH   3  21
TORSDOF 3
ENDMDL
MODEL 13
REMARK VINA RESULT:    -7.386      3.830      7.663
REMARK INTER + INTRA:          -8.992
REMARK INTER:                  -8.715
REMARK INTRA:                  -0.276
REMARK UNBOUND:                -0.310
REMARK SMILES CN1C(N)=N[C@](C)(c2cc(NC(=O)c3ccc(F)cn3)ccc2F)CS1(=O)=O
REMARK SMILES IDX 8 1 9 2 10 3 21 4 22 5 23 6 24 7 6 8 25 9 5 10 26 11 3 12
REMARK SMILES IDX 27 13 2 14 28 15 4 16 7 17 1 18 11 21 12 22 13 23 14 25
REMARK SMILES IDX 20 26 15 27 19 28 16 29 17 30 18 31
REMARK H PARENT 4 19 4 20 11 24
ROOT
ATOM      1  C   UNL     1      29.054  12.879  20.945  1.00  0.00     0.018 A 
ATOM      2  C   UNL     1      27.689  12.615  21.039  1.00  0.00     0.035 A 
ATOM      3  C   UNL     1      27.189  11.334  21.099  1.00  0.00     0.042 A 
ATOM      4  C   UNL     1      28.045  10.241  21.044  1.00  0.00     0.029 A 
ATOM      5  C   UNL     1      29.404  10.485  20.954  1.00  0.00     0.042 A 
ATOM      6  C   UNL     1      29.894  11.776  20.927  1.00  0.00     0.129 A 
ATOM      7  F   UNL     1      31.234  11.987  20.868  1.00  0.00    -0.207 F 
ENDROOT
BRANCH   1   8
ATOM      8  C   UNL     1      29.576  14.306  20.883  1.00  0.00     0.105 C 
ATOM      9  C   UNL     1      30.476  14.709  22.030  1.00  0.00     0.195 C 
ATOM     10  N   UNL     1      28.495  15.279  20.728  1.00  0.00    -0.240 NA
ATOM     11  S   UNL     1      29.588  14.674  23.567  1.00  0.00     0.239 S 
ATOM     12  C   UNL     1      27.798  15.691  21.741  1.00  0.00     0.205 C 
ATOM     13  O   UNL     1      30.229  15.643  24.437  1.00  0.00    -0.206 OA
ATOM     14  N   UNL     1      28.078  15.344  23.081  1.00  0.00    -0.243 N 
ATOM     15  O   UNL     1      29.260  13.338  23.956  1.00  0.00    -0.206 OA
ATOM     16  N   UNL     1      26.728  16.533  21.597  1.00  0.00    -0.369 N 
ATOM     17  C   UNL     1      30.384  14.482  19.595  1.00  0.00     0.044 C 
ATOM     18  C   UNL     1      27.203  15.719  24.210  1.00  0.00     0.167 C 
ATOM     19  H   UNL     1      26.454  16.832  20.700  1.00  0.00     0.159 HD
ATOM     20  H   UNL     1      26.232  16.840  22.391  1.00  0.00     0.159 HD
ENDBRANCH   1   8
BRANCH   3  21
ATOM     21  N   UNL     1      25.797  11.207  21.189  1.00  0.00    -0.321 N 
ATOM     22  C   UNL     1      24.912  10.760  20.224  1.00  0.00     0.274 C 
ATOM     23  O   UNL     1      25.203  10.519  19.060  1.00  0.00    -0.267 OA
ATOM     24  H   UNL     1      25.397  11.468  22.050  1.00  0.00     0.170 HD
BRANCH  22  25
ATOM     25  C   UNL     1      23.522  10.539  20.692  1.00  0.00     0.128 A 
ATOM     26  N   UNL     1      23.383  10.089  21.943  1.00  0.00    -0.248 NA
ATOM     27  C   UNL     1      22.458  10.808  19.848  1.00  0.00     0.037 A 
ATOM     28  C   UNL     1      22.133   9.877  22.388  1.00  0.00     0.151 A 
ATOM     29  C   UNL     1      21.183  10.585  20.337  1.00  0.00     0.043 A 
ATOM     30  C   UNL     1      21.012  10.109  21.623  1.00  0.00     0.141 A 
ATOM     31  F   UNL     1      19.794   9.887  22.144  1.00  0.00    -0.205 F 
ENDBRANCH  22  25
ENDBRANCH   3  21
TORSDOF 3
ENDMDL
MODEL 14
REMARK VINA RESULT:    -7.357      3.760      7.549
REMARK INTER + INTRA:          -8.957
REMARK INTER:                  -8.911
REMARK INTRA:                  -0.046
REMARK UNBOUND:                -0.310
REMARK SMILES CN1C(N)=N[C@](C)(c2cc(NC(=O)c3ccc(F)cn3)ccc2F)CS1(=O)=O
REMARK SMILES IDX 8 1 9 2 10 3 21 4 22 5 23 6 24 7 6 8 25 9 5 10 26 11 3 12
REMARK SMILES IDX 27 13 2 14 28 15 4 16 7 17 1 18 11 21 12 22 13 23 14 25
REMARK SMILES IDX 20 26 15 27 19 28 16 29 17 30 18 31
REMARK H PARENT 4 19 4 20 11 24
ROOT
ATOM      1  C   UNL     1      28.191  13.237  22.623  1.00  0.00     0.018 A 
ATOM      2  C   UNL     1      26.969  12.893  23.197  1.00  0.00     0.035 A 
ATOM      3  C   UNL     1      26.561  13.391  24.414  1.00  0.00     0.042 A 
ATOM      4  C   UNL     1      27.382  14.252  25.132  1.00  0.00     0.029 A 
ATOM      5  C   UNL     1      28.598  14.606  24.576  1.00  0.00     0.042 A 
ATOM      6  C   UNL     1      28.980  14.124  23.339  1.00  0.00     0.129 A 
ATOM      7  F   UNL     1      30.165  14.511  22.802  1.00  0.00    -0.207 F 
ENDROOT
BRANCH   1   8
ATOM      8  C   UNL     1      28.612  12.672  21.275  1.00  0.00     0.105 C 
ATOM      9  C   UNL     1      28.880  13.705  20.203  1.00  0.00     0.195 C 
ATOM     10  N   UNL     1      27.669  11.669  20.782  1.00  0.00    -0.240 NA
ATOM     11  S   UNL     1      27.399  14.604  19.815  1.00  0.00     0.239 S 
ATOM     12  C   UNL     1      26.571  12.005  20.178  1.00  0.00     0.205 C 
ATOM     13  O   UNL     1      27.530  15.043  18.437  1.00  0.00    -0.206 OA
ATOM     14  N   UNL     1      26.237  13.334  19.836  1.00  0.00    -0.243 N 
ATOM     15  O   UNL     1      26.999  15.452  20.894  1.00  0.00    -0.206 OA
ATOM     16  N   UNL     1      25.638  11.081  19.791  1.00  0.00    -0.369 N 
ATOM     17  C   UNL     1      29.903  11.869  21.456  1.00  0.00     0.044 C 
ATOM     18  C   UNL     1      24.930  13.714  19.263  1.00  0.00     0.167 C 
ATOM     19  H   UNL     1      25.781  10.126  19.984  1.00  0.00     0.159 HD
ATOM     20  H   UNL     1      24.824  11.370  19.318  1.00  0.00     0.159 HD
ENDBRANCH   1   8
BRANCH   3  21
ATOM     21  N   UNL     1      25.311  12.964  24.880  1.00  0.00    -0.321 N 
ATOM     22  C   UNL     1      24.180  12.660  24.144  1.00  0.00     0.274 C 
ATOM     23  O   UNL     1      24.052  12.844  22.941  1.00  0.00    -0.267 OA
ATOM     24  H   UNL     1      25.227  12.868  25.857  1.00  0.00     0.170 HD
BRANCH  22  25
ATOM     25  C   UNL     1      23.076  12.032  24.910  1.00  0.00     0.128 A 
ATOM     26  N   UNL     1      22.771  12.598  26.082  1.00  0.00    -0.248 NA
ATOM     27  C   UNL     1      22.418  10.928  24.395  1.00  0.00     0.037 A 
ATOM     28  C   UNL     1      21.776  12.045  26.796  1.00  0.00     0.151 A 
ATOM     29  C   UNL     1      21.395  10.384  25.151  1.00  0.00     0.043 A 
ATOM     30  C   UNL     1      21.068  10.943  26.371  1.00  0.00     0.141 A 
ATOM     31  F   UNL     1      20.076  10.455  27.135  1.00  0.00    -0.205 F 
ENDBRANCH  22  25
ENDBRANCH   3  21
TORSDOF 3
ENDMDL
MODEL 15
REMARK VINA RESULT:    -7.327      5.702      8.616
REMARK INTER + INTRA:          -8.922
REMARK INTER:                  -9.239
REMARK INTRA:                   0.318
REMARK UNBOUND:                -0.310
REMARK SMILES CN1C(N)=N[C@](C)(c2cc(NC(=O)c3ccc(F)cn3)ccc2F)CS1(=O)=O
REMARK SMILES IDX 8 1 9 2 10 3 21 4 22 5 23 6 24 7 6 8 25 9 5 10 26 11 3 12
REMARK SMILES IDX 27 13 2 14 28 15 4 16 7 17 1 18 11 21 12 22 13 23 14 25
REMARK SMILES IDX 20 26 15 27 19 28 16 29 17 30 18 31
REMARK H PARENT 4 19 4 20 11 24
ROOT
ATOM      1  C   UNL     1      17.596  13.491  26.149  1.00  0.00     0.018 A 
ATOM      2  C   UNL     1      18.443  13.206  25.079  1.00  0.00     0.035 A 
ATOM      3  C   UNL     1      19.716  12.715  25.259  1.00  0.00     0.042 A 
ATOM      4  C   UNL     1      20.216  12.506  26.538  1.00  0.00     0.029 A 
ATOM      5  C   UNL     1      19.388  12.780  27.612  1.00  0.00     0.042 A 
ATOM      6  C   UNL     1      18.101  13.241  27.416  1.00  0.00     0.129 A 
ATOM      7  F   UNL     1      17.299  13.475  28.487  1.00  0.00    -0.207 F 
ENDROOT
BRANCH   1   8
ATOM      8  C   UNL     1      16.192  14.029  25.918  1.00  0.00     0.105 C 
ATOM      9  C   UNL     1      16.060  15.000  24.766  1.00  0.00     0.195 C 
ATOM     10  N   UNL     1      15.621  14.609  27.132  1.00  0.00    -0.240 NA
ATOM     11  S   UNL     1      17.006  16.470  25.073  1.00  0.00     0.239 S 
ATOM     12  C   UNL     1      15.906  15.817  27.510  1.00  0.00     0.205 C 
ATOM     13  O   UNL     1      16.351  17.543  24.346  1.00  0.00    -0.206 OA
ATOM     14  N   UNL     1      16.683  16.716  26.746  1.00  0.00    -0.243 N 
ATOM     15  O   UNL     1      18.411  16.211  25.030  1.00  0.00    -0.206 OA
ATOM     16  N   UNL     1      15.448  16.342  28.689  1.00  0.00    -0.369 N 
ATOM     17  C   UNL     1      15.255  12.854  25.626  1.00  0.00     0.044 C 
ATOM     18  C   UNL     1      17.103  18.041  27.244  1.00  0.00     0.167 C 
ATOM     19  H   UNL     1      14.897  15.792  29.291  1.00  0.00     0.159 HD
ATOM     20  H   UNL     1      15.670  17.269  28.934  1.00  0.00     0.159 HD
ENDBRANCH   1   8
BRANCH   3  21
ATOM     21  N   UNL     1      20.465  12.473  24.099  1.00  0.00    -0.321 N 
ATOM     22  C   UNL     1      20.468  11.343  23.302  1.00  0.00     0.274 C 
ATOM     23  O   UNL     1      19.894  10.294  23.564  1.00  0.00    -0.267 OA
ATOM     24  H   UNL     1      21.065  13.201  23.816  1.00  0.00     0.170 HD
BRANCH  22  25
ATOM     25  C   UNL     1      21.210  11.472  22.024  1.00  0.00     0.128 A 
ATOM     26  N   UNL     1      21.152  10.423  21.196  1.00  0.00    -0.248 NA
ATOM     27  C   UNL     1      21.904  12.636  21.742  1.00  0.00     0.037 A 
ATOM     28  C   UNL     1      21.820  10.515  20.034  1.00  0.00     0.151 A 
ATOM     29  C   UNL     1      22.577  12.703  20.535  1.00  0.00     0.043 A 
ATOM     30  C   UNL     1      22.542  11.628  19.667  1.00  0.00     0.141 A 
ATOM     31  F   UNL     1      23.172  11.651  18.481  1.00  0.00    -0.205 F 
ENDBRANCH  22  25
ENDBRANCH   3  21
TORSDOF 3
ENDMDL
MODEL 16
REMARK VINA RESULT:    -7.303      4.297      7.707
REMARK INTER + INTRA:          -8.893
REMARK INTER:                  -8.529
REMARK INTRA:                  -0.364
REMARK UNBOUND:                -0.310
REMARK SMILES CN1C(N)=N[C@](C)(c2cc(NC(=O)c3ccc(F)cn3)ccc2F)CS1(=O)=O
REMARK SMILES IDX 8 1 9 2 10 3 21 4 22 5 23 6 24 7 6 8 25 9 5 10 26 11 3 12
REMARK SMILES IDX 27 13 2 14 28 15 4 16 7 17 1 18 11 21 12 22 13 23 14 25
REMARK SMILES IDX 20 26 15 27 19 28 16 29 17 30 18 31
REMARK H PARENT 4 19 4 20 11 24
ROOT
ATOM      1  C   UNL     1      26.783  13.789  21.245  1.00  0.00     0.018 A 
ATOM      2  C   UNL     1      25.626  13.504  21.969  1.00  0.00     0.035 A 
ATOM      3  C   UNL     1      24.952  12.311  21.841  1.00  0.00     0.042 A 
ATOM      4  C   UNL     1      25.399  11.343  20.951  1.00  0.00     0.029 A 
ATOM      5  C   UNL     1      26.548  11.606  20.226  1.00  0.00     0.042 A 
ATOM      6  C   UNL     1      27.233  12.795  20.389  1.00  0.00     0.129 A 
ATOM      7  F   UNL     1      28.374  13.017  19.688  1.00  0.00    -0.207 F 
ENDROOT
BRANCH   1   8
ATOM      8  C   UNL     1      27.508  15.115  21.411  1.00  0.00     0.105 C 
ATOM      9  C   UNL     1      28.996  15.006  21.661  1.00  0.00     0.195 C 
ATOM     10  N   UNL     1      26.888  15.954  22.435  1.00  0.00    -0.240 NA
ATOM     11  S   UNL     1      29.315  14.181  23.199  1.00  0.00     0.239 S 
ATOM     12  C   UNL     1      27.134  15.784  23.698  1.00  0.00     0.205 C 
ATOM     13  O   UNL     1      30.592  14.677  23.679  1.00  0.00    -0.206 OA
ATOM     14  N   UNL     1      28.093  14.873  24.195  1.00  0.00    -0.243 N 
ATOM     15  O   UNL     1      28.962  12.796  23.138  1.00  0.00    -0.206 OA
ATOM     16  N   UNL     1      26.494  16.503  24.671  1.00  0.00    -0.369 N 
ATOM     17  C   UNL     1      27.326  15.941  20.135  1.00  0.00     0.044 C 
ATOM     18  C   UNL     1      28.273  14.601  25.635  1.00  0.00     0.167 C 
ATOM     19  H   UNL     1      25.808  17.164  24.423  1.00  0.00     0.159 HD
ATOM     20  H   UNL     1      26.720  16.359  25.619  1.00  0.00     0.159 HD
ENDBRANCH   1   8
BRANCH   3  21
ATOM     21  N   UNL     1      23.801  12.153  22.624  1.00  0.00    -0.321 N 
ATOM     22  C   UNL     1      22.491  12.450  22.293  1.00  0.00     0.274 C 
ATOM     23  O   UNL     1      22.137  13.033  21.277  1.00  0.00    -0.267 OA
ATOM     24  H   UNL     1      23.943  11.784  23.526  1.00  0.00     0.170 HD
BRANCH  22  25
ATOM     25  C   UNL     1      21.471  11.972  23.257  1.00  0.00     0.128 A 
ATOM     26  N   UNL     1      21.360  12.666  24.395  1.00  0.00    -0.248 NA
ATOM     27  C   UNL     1      20.690  10.872  22.949  1.00  0.00     0.037 A 
ATOM     28  C   UNL     1      20.445  12.250  25.286  1.00  0.00     0.151 A 
ATOM     29  C   UNL     1      19.752  10.471  23.884  1.00  0.00     0.043 A 
ATOM     30  C   UNL     1      19.627  11.164  25.073  1.00  0.00     0.141 A 
ATOM     31  F   UNL     1      18.725  10.817  26.007  1.00  0.00    -0.205 F 
ENDBRANCH  22  25
ENDBRANCH   3  21
TORSDOF 3
ENDMDL
MODEL 17
REMARK VINA RESULT:    -7.249      3.492      7.473
REMARK INTER + INTRA:          -8.830
REMARK INTER:                  -9.180
REMARK INTRA:                   0.350
REMARK UNBOUND:                -0.310
REMARK SMILES CN1C(N)=N[C@](C)(c2cc(NC(=O)c3ccc(F)cn3)ccc2F)CS1(=O)=O
REMARK SMILES IDX 8 1 9 2 10 3 21 4 22 5 23 6 24 7 6 8 25 9 5 10 26 11 3 12
REMARK SMILES IDX 27 13 2 14 28 15 4 16 7 17 1 18 11 21 12 22 13 23 14 25
REMARK SMILES IDX 20 26 15 27 19 28 16 29 17 30 18 31
REMARK H PARENT 4 19 4 20 11 24
ROOT
ATOM      1  C   UNL     1      26.083  12.399  20.145  1.00  0.00     0.018 A 
ATOM      2  C   UNL     1      24.961  12.231  20.955  1.00  0.00     0.035 A 
ATOM      3  C   UNL     1      23.712  12.676  20.585  1.00  0.00     0.042 A 
ATOM      4  C   UNL     1      23.531  13.338  19.378  1.00  0.00     0.029 A 
ATOM      5  C   UNL     1      24.633  13.511  18.559  1.00  0.00     0.042 A 
ATOM      6  C   UNL     1      25.874  13.031  18.929  1.00  0.00     0.129 A 
ATOM      7  F   UNL     1      26.933  13.187  18.095  1.00  0.00    -0.207 F 
ENDROOT
BRANCH   1   8
ATOM      8  C   UNL     1      27.449  11.893  20.582  1.00  0.00     0.105 C 
ATOM      9  C   UNL     1      27.634  11.757  22.076  1.00  0.00     0.195 C 
ATOM     10  N   UNL     1      28.536  12.687  20.011  1.00  0.00    -0.240 NA
ATOM     11  S   UNL     1      27.523  13.341  22.869  1.00  0.00     0.239 S 
ATOM     12  C   UNL     1      28.904  13.815  20.536  1.00  0.00     0.205 C 
ATOM     13  O   UNL     1      28.324  13.257  24.077  1.00  0.00    -0.206 OA
ATOM     14  N   UNL     1      28.389  14.322  21.750  1.00  0.00    -0.243 N 
ATOM     15  O   UNL     1      26.192  13.862  22.822  1.00  0.00    -0.206 OA
ATOM     16  N   UNL     1      29.859  14.611  19.963  1.00  0.00    -0.369 N 
ATOM     17  C   UNL     1      27.681  10.507  19.973  1.00  0.00     0.044 C 
ATOM     18  C   UNL     1      28.726  15.662  22.270  1.00  0.00     0.167 C 
ATOM     19  H   UNL     1      30.279  14.342  19.114  1.00  0.00     0.159 HD
ATOM     20  H   UNL     1      30.127  15.452  20.399  1.00  0.00     0.159 HD
ENDBRANCH   1   8
BRANCH   3  21
ATOM     21  N   UNL     1      22.669  12.446  21.492  1.00  0.00    -0.321 N 
ATOM     22  C   UNL     1      21.683  11.477  21.437  1.00  0.00     0.274 C 
ATOM     23  O   UNL     1      21.487  10.725  20.492  1.00  0.00    -0.267 OA
ATOM     24  H   UNL     1      22.634  13.052  22.268  1.00  0.00     0.170 HD
BRANCH  22  25
ATOM     25  C   UNL     1      20.847  11.355  22.656  1.00  0.00     0.128 A 
ATOM     26  N   UNL     1      20.225  10.185  22.834  1.00  0.00    -0.248 NA
ATOM     27  C   UNL     1      20.754  12.417  23.540  1.00  0.00     0.037 A 
ATOM     28  C   UNL     1      19.458  10.052  23.929  1.00  0.00     0.151 A 
ATOM     29  C   UNL     1      19.962  12.247  24.661  1.00  0.00     0.043 A 
ATOM     30  C   UNL     1      19.299  11.052  24.861  1.00  0.00     0.141 A 
ATOM     31  F   UNL     1      18.526  10.838  25.940  1.00  0.00    -0.205 F 
ENDBRANCH  22  25
ENDBRANCH   3  21
TORSDOF 3
ENDMDL
MODEL 18
REMARK VINA RESULT:    -7.227      4.191      7.624
REMARK INTER + INTRA:          -8.805
REMARK INTER:                  -8.512
REMARK INTRA:                  -0.293
REMARK UNBOUND:                -0.310
REMARK SMILES CN1C(N)=N[C@](C)(c2cc(NC(=O)c3ccc(F)cn3)ccc2F)CS1(=O)=O
REMARK SMILES IDX 8 1 9 2 10 3 21 4 22 5 23 6 24 7 6 8 25 9 5 10 26 11 3 12
REMARK SMILES IDX 27 13 2 14 28 15 4 16 7 17 1 18 11 21 12 22 13 23 14 25
REMARK SMILES IDX 20 26 15 27 19 28 16 29 17 30 18 31
REMARK H PARENT 4 19 4 20 11 24
ROOT
ATOM      1  C   UNL     1      26.926  14.833  19.882  1.00  0.00     0.018 A 
ATOM      2  C   UNL     1      25.858  14.186  20.503  1.00  0.00     0.035 A 
ATOM      3  C   UNL     1      25.108  13.225  19.865  1.00  0.00     0.042 A 
ATOM      4  C   UNL     1      25.383  12.877  18.548  1.00  0.00     0.029 A 
ATOM      5  C   UNL     1      26.441  13.506  17.917  1.00  0.00     0.042 A 
ATOM      6  C   UNL     1      27.205  14.446  18.580  1.00  0.00     0.129 A 
ATOM      7  F   UNL     1      28.257  15.028  17.947  1.00  0.00    -0.207 F 
ENDROOT
BRANCH   1   8
ATOM      8  C   UNL     1      27.738  15.890  20.614  1.00  0.00     0.105 C 
ATOM      9  C   UNL     1      29.218  15.599  20.722  1.00  0.00     0.195 C 
ATOM     10  N   UNL     1      27.187  16.186  21.936  1.00  0.00    -0.240 NA
ATOM     11  S   UNL     1      29.502  14.137  21.688  1.00  0.00     0.239 S 
ATOM     12  C   UNL     1      27.437  15.435  22.963  1.00  0.00     0.205 C 
ATOM     13  O   UNL     1      30.815  14.286  22.289  1.00  0.00    -0.206 OA
ATOM     14  N   UNL     1      28.340  14.348  22.941  1.00  0.00    -0.243 N 
ATOM     15  O   UNL     1      29.059  12.961  21.006  1.00  0.00    -0.206 OA
ATOM     16  N   UNL     1      26.858  15.650  24.185  1.00  0.00    -0.369 N 
ATOM     17  C   UNL     1      27.595  17.223  19.876  1.00  0.00     0.044 C 
ATOM     18  C   UNL     1      28.521  13.428  24.081  1.00  0.00     0.167 C 
ATOM     19  H   UNL     1      26.213  16.385  24.301  1.00  0.00     0.159 HD
ATOM     20  H   UNL     1      27.086  15.070  24.947  1.00  0.00     0.159 HD
ENDBRANCH   1   8
BRANCH   3  21
ATOM     21  N   UNL     1      24.061  12.654  20.601  1.00  0.00    -0.321 N 
ATOM     22  C   UNL     1      22.702  12.719  20.349  1.00  0.00     0.274 C 
ATOM     23  O   UNL     1      22.178  13.413  19.488  1.00  0.00    -0.267 OA
ATOM     24  H   UNL     1      24.327  12.142  21.398  1.00  0.00     0.170 HD
BRANCH  22  25
ATOM     25  C   UNL     1      21.860  11.835  21.191  1.00  0.00     0.128 A 
ATOM     26  N   UNL     1      21.474  12.332  22.371  1.00  0.00    -0.248 NA
ATOM     27  C   UNL     1      21.509  10.576  20.736  1.00  0.00     0.037 A 
ATOM     28  C   UNL     1      20.714  11.548  23.153  1.00  0.00     0.151 A 
ATOM     29  C   UNL     1      20.720   9.794  21.561  1.00  0.00     0.043 A 
ATOM     30  C   UNL     1      20.318  10.280  22.790  1.00  0.00     0.141 A 
ATOM     31  F   UNL     1      19.544   9.561  23.621  1.00  0.00    -0.205 F 
ENDBRANCH  22  25
ENDBRANCH   3  21
TORSDOF 3
ENDMDL
MODEL 19
REMARK VINA RESULT:    -7.214      4.563      5.890
REMARK INTER + INTRA:          -8.789
REMARK INTER:                  -8.962
REMARK INTRA:                   0.173
REMARK UNBOUND:                -0.310
REMARK SMILES CN1C(N)=N[C@](C)(c2cc(NC(=O)c3ccc(F)cn3)ccc2F)CS1(=O)=O
REMARK SMILES IDX 8 1 9 2 10 3 21 4 22 5 23 6 24 7 6 8 25 9 5 10 26 11 3 12
REMARK SMILES IDX 27 13 2 14 28 15 4 16 7 17 1 18 11 21 12 22 13 23 14 25
REMARK SMILES IDX 20 26 15 27 19 28 16 29 17 30 18 31
REMARK H PARENT 4 19 4 20 11 24
ROOT
ATOM      1  C   UNL     1      21.309  11.629  25.796  1.00  0.00     0.018 A 
ATOM      2  C   UNL     1      22.594  12.149  25.946  1.00  0.00     0.035 A 
ATOM      3  C   UNL     1      23.455  12.303  24.883  1.00  0.00     0.042 A 
ATOM      4  C   UNL     1      23.070  11.918  23.605  1.00  0.00     0.029 A 
ATOM      5  C   UNL     1      21.796  11.404  23.437  1.00  0.00     0.042 A 
ATOM      6  C   UNL     1      20.932  11.285  24.507  1.00  0.00     0.129 A 
ATOM      7  F   UNL     1      19.677  10.804  24.310  1.00  0.00    -0.207 F 
ENDROOT
BRANCH   1   8
ATOM      8  C   UNL     1      20.380  11.474  26.990  1.00  0.00     0.105 C 
ATOM      9  C   UNL     1      18.942  11.869  26.739  1.00  0.00     0.195 C 
ATOM     10  N   UNL     1      20.891  12.162  28.175  1.00  0.00    -0.240 NA
ATOM     11  S   UNL     1      18.824  13.600  26.364  1.00  0.00     0.239 S 
ATOM     12  C   UNL     1      20.724  13.437  28.348  1.00  0.00     0.205 C 
ATOM     13  O   UNL     1      17.501  14.025  26.784  1.00  0.00    -0.206 OA
ATOM     14  N   UNL     1      19.950  14.251  27.491  1.00  0.00    -0.243 N 
ATOM     15  O   UNL     1      19.399  13.904  25.091  1.00  0.00    -0.206 OA
ATOM     16  N   UNL     1      21.272  14.108  29.408  1.00  0.00    -0.369 N 
ATOM     17  C   UNL     1      20.373  10.005  27.423  1.00  0.00     0.044 C 
ATOM     18  C   UNL     1      19.873  15.719  27.630  1.00  0.00     0.167 C 
ATOM     19  H   UNL     1      21.829  13.626  30.061  1.00  0.00     0.159 HD
ATOM     20  H   UNL     1      21.110  15.073  29.517  1.00  0.00     0.159 HD
ENDBRANCH   1   8
BRANCH   3  21
ATOM     21  N   UNL     1      24.719  12.834  25.171  1.00  0.00    -0.321 N 
ATOM     22  C   UNL     1      25.628  13.404  24.297  1.00  0.00     0.274 C 
ATOM     23  O   UNL     1      25.519  13.419  23.078  1.00  0.00    -0.267 OA
ATOM     24  H   UNL     1      24.995  12.798  26.115  1.00  0.00     0.170 HD
BRANCH  22  25
ATOM     25  C   UNL     1      26.790  14.067  24.937  1.00  0.00     0.128 A 
ATOM     26  N   UNL     1      27.996  13.738  24.461  1.00  0.00    -0.248 NA
ATOM     27  C   UNL     1      26.590  14.977  25.960  1.00  0.00     0.037 A 
ATOM     28  C   UNL     1      29.064  14.322  25.027  1.00  0.00     0.151 A 
ATOM     29  C   UNL     1      27.710  15.567  26.519  1.00  0.00     0.043 A 
ATOM     30  C   UNL     1      28.968  15.235  26.053  1.00  0.00     0.141 A 
ATOM     31  F   UNL     1      30.083  15.788  26.559  1.00  0.00    -0.205 F 
ENDBRANCH  22  25
ENDBRANCH   3  21
TORSDOF 3
ENDMDL
MODEL 20
REMARK VINA RESULT:    -7.101      5.586      8.168
REMARK INTER + INTRA:          -8.656
REMARK INTER:                  -8.238
REMARK INTRA:                  -0.418
REMARK UNBOUND:                -0.310
REMARK SMILES CN1C(N)=N[C@](C)(c2cc(NC(=O)c3ccc(F)cn3)ccc2F)CS1(=O)=O
REMARK SMILES IDX 8 1 9 2 10 3 21 4 22 5 23 6 24 7 6 8 25 9 5 10 26 11 3 12
REMARK SMILES IDX 27 13 2 14 28 15 4 16 7 17 1 18 11 21 12 22 13 23 14 25
REMARK SMILES IDX 20 26 15 27 19 28 16 29 17 30 18 31
REMARK H PARENT 4 19 4 20 11 24
ROOT
ATOM      1  C   UNL     1      27.141  12.609  20.294  1.00  0.00     0.018 A 
ATOM      2  C   UNL     1      27.416  13.481  19.242  1.00  0.00     0.035 A 
ATOM      3  C   UNL     1      26.421  14.079  18.502  1.00  0.00     0.042 A 
ATOM      4  C   UNL     1      25.085  13.808  18.771  1.00  0.00     0.029 A 
ATOM      5  C   UNL     1      24.794  12.947  19.814  1.00  0.00     0.042 A 
ATOM      6  C   UNL     1      25.802  12.380  20.569  1.00  0.00     0.129 A 
ATOM      7  F   UNL     1      25.488  11.561  21.606  1.00  0.00    -0.207 F 
ENDROOT
BRANCH   1   8
ATOM      8  C   UNL     1      28.263  11.967  21.095  1.00  0.00     0.105 C 
ATOM      9  C   UNL     1      28.098  12.036  22.597  1.00  0.00     0.195 C 
ATOM     10  N   UNL     1      29.576  12.481  20.710  1.00  0.00    -0.240 NA
ATOM     11  S   UNL     1      28.124  13.721  23.154  1.00  0.00     0.239 S 
ATOM     12  C   UNL     1      30.032  13.603  21.174  1.00  0.00     0.205 C 
ATOM     13  O   UNL     1      28.620  13.699  24.518  1.00  0.00    -0.206 OA
ATOM     14  N   UNL     1      29.377  14.367  22.166  1.00  0.00    -0.243 N 
ATOM     15  O   UNL     1      26.956  14.432  22.735  1.00  0.00    -0.206 OA
ATOM     16  N   UNL     1      31.220  14.139  20.755  1.00  0.00    -0.369 N 
ATOM     17  C   UNL     1      28.352  10.484  20.721  1.00  0.00     0.044 C 
ATOM     18  C   UNL     1      29.843  15.701  22.593  1.00  0.00     0.167 C 
ATOM     19  H   UNL     1      31.751  13.679  20.065  1.00  0.00     0.159 HD
ATOM     20  H   UNL     1      31.543  14.984  21.143  1.00  0.00     0.159 HD
ENDBRANCH   1   8
BRANCH   3  21
ATOM     21  N   UNL     1      26.833  14.933  17.470  1.00  0.00    -0.321 N 
ATOM     22  C   UNL     1      27.161  16.274  17.548  1.00  0.00     0.274 C 
ATOM     23  O   UNL     1      27.016  16.979  18.539  1.00  0.00    -0.267 OA
ATOM     24  H   UNL     1      26.897  14.526  16.576  1.00  0.00     0.170 HD
BRANCH  22  25
ATOM     25  C   UNL     1      27.763  16.851  16.322  1.00  0.00     0.128 A 
ATOM     26  N   UNL     1      27.469  18.129  16.061  1.00  0.00    -0.248 NA
ATOM     27  C   UNL     1      28.588  16.075  15.526  1.00  0.00     0.037 A 
ATOM     28  C   UNL     1      28.000  18.672  14.953  1.00  0.00     0.151 A 
ATOM     29  C   UNL     1      29.125  16.664  14.395  1.00  0.00     0.043 A 
ATOM     30  C   UNL     1      28.826  17.980  14.097  1.00  0.00     0.141 A 
ATOM     31  F   UNL     1      29.331  18.597  13.015  1.00  0.00    -0.205 F 
ENDBRANCH  22  25
ENDBRANCH   3  21
TORSDOF 3
ENDMDL
