MODEL 1
REMARK VINA RESULT:    -8.811      0.000      0.000
REMARK INTER + INTRA:         -14.379
REMARK INTER:                 -13.189
REMARK INTRA:                  -1.190
REMARK UNBOUND:                -1.190
REMARK SMILES C[C@H]1N[C@@H](N[C@@H](O)N2CCC[C@H]2[C@@H](N)O)S[C@@H]1[C@H]1CCN[C@H](C(C)(C)C(F)(F)F)C1
REMARK SMILES IDX 5 1 4 3 2 4 17 5 3 6 16 7 1 8 18 10 19 11 30 12 20 13 22 14
REMARK SMILES IDX 21 15 23 17 24 18 25 19 26 20 27 21 28 22 29 23 6 24 7 25
REMARK SMILES IDX 8 27 12 28 9 29 11 30 10 31 13 32 15 33 14 35
REMARK H PARENT 5 2 3 9 21 16 7 26 15 34 14 36 14 37
ROOT
ATOM      1  N   UNL     1      -0.045 -10.143  13.778  1.00  0.00    -0.255 NA
ATOM      2  H   UNL     1       0.108 -11.000  13.227  1.00  0.00     0.129 HD
ENDROOT
BRANCH   1   3
ATOM      3  C   UNL     1      -1.009 -10.469  14.712  1.00  0.00     0.185 C 
ATOM      4  C   UNL     1      -2.893 -11.366  15.448  1.00  0.00     0.066 C 
ATOM      5  C   UNL     1      -2.433 -10.863  16.661  1.00  0.00     0.069 C 
ATOM      6  N   UNL     1      -2.074 -11.142  14.360  1.00  0.00    -0.290 NA
ATOM      7  S   UNL     1      -0.915 -10.042  16.384  1.00  0.00    -0.122 SA
ATOM      8  C   UNL     1      -4.159 -12.131  15.241  1.00  0.00     0.025 C 
ATOM      9  H   UNL     1      -1.786 -12.047  13.961  1.00  0.00     0.125 HD
BRANCH   5  10
ATOM     10  C   UNL     1      -2.951 -10.860  18.048  1.00  0.00     0.006 C 
ATOM     11  C   UNL     1      -4.097 -11.567  18.394  1.00  0.00     0.020 C 
ATOM     12  C   UNL     1      -2.268 -10.163  19.039  1.00  0.00     0.024 C 
ATOM     13  C   UNL     1      -4.539 -11.509  19.697  1.00  0.00     0.081 C 
ATOM     14  C   UNL     1      -2.786 -10.180  20.342  1.00  0.00     0.068 C 
ATOM     15  N   UNL     1      -3.915 -10.826  20.667  1.00  0.00    -0.313 NA
ATOM     16  H   UNL     1      -4.578 -10.126  21.027  1.00  0.00     0.122 HD
BRANCH  14  17
ATOM     17  C   UNL     1      -2.044  -9.483  21.508  1.00  0.00     0.076 C 
ATOM     18  C   UNL     1      -1.447  -8.138  21.063  1.00  0.00     0.022 C 
ATOM     19  C   UNL     1      -3.004  -9.258  22.690  1.00  0.00     0.022 C 
BRANCH  17  20
ATOM     20  C   UNL     1      -0.809 -10.416  22.025  1.00  0.00     0.395 C 
ATOM     21  F   UNL     1       0.352  -9.955  21.561  1.00  0.00    -0.170 F 
ATOM     22  F   UNL     1      -0.708 -10.457  23.349  1.00  0.00    -0.170 F 
ATOM     23  F   UNL     1      -0.932 -11.674  21.618  1.00  0.00    -0.170 F 
ENDBRANCH  17  20
ENDBRANCH  14  17
ENDBRANCH   5  10
ENDBRANCH   1   3
BRANCH   1  24
ATOM     24  C   UNL     1      -0.168  -9.107  12.840  1.00  0.00     0.261 C 
BRANCH  24  25
ATOM     25  O   UNL     1      -1.225  -8.879  12.270  1.00  0.00    -0.365 OA
ATOM     26  H   UNL     1      -1.051  -8.342  11.456  1.00  0.00     0.214 HD
ENDBRANCH  24  25
BRANCH  24  27
ATOM     27  N   UNL     1       0.957  -8.348  12.581  1.00  0.00    -0.259 NA
ATOM     28  C   UNL     1       1.362  -7.290  13.521  1.00  0.00     0.104 C 
ATOM     29  C   UNL     1       1.870  -8.460  11.433  1.00  0.00     0.089 C 
ATOM     30  C   UNL     1       2.684  -6.769  12.937  1.00  0.00     0.025 C 
ATOM     31  C   UNL     1       2.660  -7.170  11.481  1.00  0.00     0.017 C 
BRANCH  28  32
ATOM     32  C   UNL     1       0.321  -6.179  13.677  1.00  0.00     0.197 C 
BRANCH  32  33
ATOM     33  O   UNL     1      -0.379  -5.844  12.718  1.00  0.00    -0.377 OA
ATOM     34  H   UNL     1      -0.006  -5.024  12.308  1.00  0.00     0.212 HD
ENDBRANCH  32  33
BRANCH  32  35
ATOM     35  N   UNL     1       0.276  -5.569  14.851  1.00  0.00    -0.305 NA
ATOM     36  H   UNL     1      -0.613  -5.793  15.319  1.00  0.00     0.121 HD
ATOM     37  H   UNL     1       1.062  -5.888  15.435  1.00  0.00     0.121 HD
ENDBRANCH  32  35
ENDBRANCH  28  32
ENDBRANCH  24  27
ENDBRANCH   1  24
TORSDOF 10
ENDMDL
MODEL 2
REMARK VINA RESULT:    -8.523      2.290      3.359
REMARK INTER + INTRA:         -13.948
REMARK INTER:                 -12.869
REMARK INTRA:                  -1.079
REMARK UNBOUND:                -1.190
REMARK SMILES C[C@H]1N[C@@H](N[C@@H](O)N2CCC[C@H]2[C@@H](N)O)S[C@@H]1[C@H]1CCN[C@H](C(C)(C)C(F)(F)F)C1
REMARK SMILES IDX 5 1 4 3 2 4 17 5 3 6 16 7 1 8 18 10 19 11 30 12 20 13 22 14
REMARK SMILES IDX 21 15 23 17 24 18 25 19 26 20 27 21 28 22 29 23 6 24 7 25
REMARK SMILES IDX 8 27 12 28 9 29 11 30 10 31 13 32 15 33 14 35
REMARK H PARENT 5 2 3 9 21 16 7 26 15 34 14 36 14 37
ROOT
ATOM      1  N   UNL     1       0.700  -8.108  12.219  1.00  0.00    -0.255 NA
ATOM      2  H   UNL     1       1.648  -7.788  12.463  1.00  0.00     0.129 HD
ENDROOT
BRANCH   1   3
ATOM      3  C   UNL     1       0.118  -8.490  13.413  1.00  0.00     0.185 C 
ATOM      4  C   UNL     1      -0.905  -9.857  14.820  1.00  0.00     0.066 C 
ATOM      5  C   UNL     1      -0.776  -8.766  15.672  1.00  0.00     0.069 C 
ATOM      6  N   UNL     1      -0.389  -9.688  13.550  1.00  0.00    -0.290 NA
ATOM      7  S   UNL     1       0.002  -7.467  14.800  1.00  0.00    -0.122 SA
ATOM      8  C   UNL     1      -1.521 -11.174  15.167  1.00  0.00     0.025 C 
ATOM      9  H   UNL     1       0.349 -10.388  13.389  1.00  0.00     0.125 HD
BRANCH   5  10
ATOM     10  C   UNL     1      -1.163  -8.492  17.074  1.00  0.00     0.006 C 
ATOM     11  C   UNL     1      -0.967  -7.241  17.649  1.00  0.00     0.020 C 
ATOM     12  C   UNL     1      -1.762  -9.492  17.834  1.00  0.00     0.024 C 
ATOM     13  C   UNL     1      -1.331  -7.054  18.964  1.00  0.00     0.081 C 
ATOM     14  C   UNL     1      -2.116  -9.200  19.159  1.00  0.00     0.068 C 
ATOM     15  N   UNL     1      -1.888  -8.007  19.725  1.00  0.00    -0.313 NA
ATOM     16  H   UNL     1      -1.264  -8.162  20.530  1.00  0.00     0.122 HD
BRANCH  14  17
ATOM     17  C   UNL     1      -2.847 -10.242  20.041  1.00  0.00     0.076 C 
ATOM     18  C   UNL     1      -3.880  -9.567  20.958  1.00  0.00     0.022 C 
ATOM     19  C   UNL     1      -3.545 -11.289  19.156  1.00  0.00     0.022 C 
BRANCH  17  20
ATOM     20  C   UNL     1      -1.776 -11.015  20.999  1.00  0.00     0.395 C 
ATOM     21  F   UNL     1      -2.264 -11.150  22.232  1.00  0.00    -0.170 F 
ATOM     22  F   UNL     1      -1.476 -12.234  20.565  1.00  0.00    -0.170 F 
ATOM     23  F   UNL     1      -0.627 -10.356  21.094  1.00  0.00    -0.170 F 
ENDBRANCH  17  20
ENDBRANCH  14  17
ENDBRANCH   5  10
ENDBRANCH   1   3
BRANCH   1  24
ATOM     24  C   UNL     1       0.859  -8.950  11.109  1.00  0.00     0.261 C 
BRANCH  24  25
ATOM     25  O   UNL     1      -0.097  -9.334  10.451  1.00  0.00    -0.365 OA
ATOM     26  H   UNL     1       0.139 -10.175   9.986  1.00  0.00     0.214 HD
ENDBRANCH  24  25
BRANCH  24  27
ATOM     27  N   UNL     1       2.145  -9.334  10.782  1.00  0.00    -0.259 NA
ATOM     28  C   UNL     1       3.235  -8.345  10.800  1.00  0.00     0.104 C 
ATOM     29  C   UNL     1       2.611 -10.678  10.404  1.00  0.00     0.089 C 
ATOM     30  C   UNL     1       4.489  -9.176  10.488  1.00  0.00     0.025 C 
ATOM     31  C   UNL     1       3.977 -10.423   9.806  1.00  0.00     0.017 C 
BRANCH  28  32
ATOM     32  C   UNL     1       3.038  -7.200   9.804  1.00  0.00     0.197 C 
BRANCH  32  33
ATOM     33  O   UNL     1       3.335  -7.351   8.616  1.00  0.00    -0.377 OA
ATOM     34  H   UNL     1       2.512  -7.333   8.066  1.00  0.00     0.212 HD
ENDBRANCH  32  33
BRANCH  32  35
ATOM     35  N   UNL     1       2.613  -6.049  10.300  1.00  0.00    -0.305 NA
ATOM     36  H   UNL     1       2.001  -5.585   9.614  1.00  0.00     0.121 HD
ATOM     37  H   UNL     1       2.087  -6.221  11.168  1.00  0.00     0.121 HD
ENDBRANCH  32  35
ENDBRANCH  28  32
ENDBRANCH  24  27
ENDBRANCH   1  24
TORSDOF 10
ENDMDL
MODEL 3
REMARK VINA RESULT:    -8.453      1.718      2.909
REMARK INTER + INTRA:         -13.843
REMARK INTER:                 -12.998
REMARK INTRA:                  -0.845
REMARK UNBOUND:                -1.190
REMARK SMILES C[C@H]1N[C@@H](N[C@@H](O)N2CCC[C@H]2[C@@H](N)O)S[C@@H]1[C@H]1CCN[C@H](C(C)(C)C(F)(F)F)C1
REMARK SMILES IDX 5 1 4 3 2 4 17 5 3 6 16 7 1 8 18 10 19 11 30 12 20 13 22 14
REMARK SMILES IDX 21 15 23 17 24 18 25 19 26 20 27 21 28 22 29 23 6 24 7 25
REMARK SMILES IDX 8 27 12 28 9 29 11 30 10 31 13 32 15 33 14 35
REMARK H PARENT 5 2 3 9 21 16 7 26 15 34 14 36 14 37
ROOT
ATOM      1  N   UNL     1       0.276  -8.664  13.284  1.00  0.00    -0.255 NA
ATOM      2  H   UNL     1      -0.333  -9.069  12.559  1.00  0.00     0.129 HD
ENDROOT
BRANCH   1   3
ATOM      3  C   UNL     1      -0.378  -8.880  14.482  1.00  0.00     0.185 C 
ATOM      4  C   UNL     1      -1.001  -8.431  16.557  1.00  0.00     0.066 C 
ATOM      5  C   UNL     1      -1.713  -9.616  16.394  1.00  0.00     0.069 C 
ATOM      6  N   UNL     1      -0.258  -8.026  15.467  1.00  0.00    -0.290 NA
ATOM      7  S   UNL     1      -1.386 -10.247  14.798  1.00  0.00    -0.122 SA
ATOM      8  C   UNL     1      -0.996  -7.573  17.780  1.00  0.00     0.025 C 
ATOM      9  H   UNL     1      -0.591  -7.103  15.155  1.00  0.00     0.125 HD
BRANCH   5  10
ATOM     10  C   UNL     1      -2.615 -10.412  17.256  1.00  0.00     0.006 C 
ATOM     11  C   UNL     1      -3.384 -11.448  16.738  1.00  0.00     0.020 C 
ATOM     12  C   UNL     1      -2.681 -10.145  18.620  1.00  0.00     0.024 C 
ATOM     13  C   UNL     1      -4.218 -12.140  17.589  1.00  0.00     0.081 C 
ATOM     14  C   UNL     1      -3.546 -10.918  19.409  1.00  0.00     0.068 C 
ATOM     15  N   UNL     1      -4.319 -11.888  18.902  1.00  0.00    -0.313 NA
ATOM     16  H   UNL     1      -5.299 -11.633  19.092  1.00  0.00     0.122 HD
BRANCH  14  17
ATOM     17  C   UNL     1      -3.622 -10.721  20.943  1.00  0.00     0.076 C 
ATOM     18  C   UNL     1      -4.107  -9.307  21.299  1.00  0.00     0.022 C 
ATOM     19  C   UNL     1      -4.566 -11.765  21.566  1.00  0.00     0.022 C 
BRANCH  17  20
ATOM     20  C   UNL     1      -2.143 -10.911  21.606  1.00  0.00     0.395 C 
ATOM     21  F   UNL     1      -1.487 -11.905  21.009  1.00  0.00    -0.170 F 
ATOM     22  F   UNL     1      -1.384  -9.826  21.501  1.00  0.00    -0.170 F 
ATOM     23  F   UNL     1      -2.213 -11.197  22.901  1.00  0.00    -0.170 F 
ENDBRANCH  17  20
ENDBRANCH  14  17
ENDBRANCH   5  10
ENDBRANCH   1   3
BRANCH   1  24
ATOM     24  C   UNL     1       0.651  -7.401  12.802  1.00  0.00     0.261 C 
BRANCH  24  25
ATOM     25  O   UNL     1      -0.023  -6.405  13.018  1.00  0.00    -0.365 OA
ATOM     26  H   UNL     1       0.239  -5.687  12.388  1.00  0.00     0.214 HD
ENDBRANCH  24  25
BRANCH  24  27
ATOM     27  N   UNL     1       1.819  -7.323  12.067  1.00  0.00    -0.259 NA
ATOM     28  C   UNL     1       1.775  -7.448  10.601  1.00  0.00     0.104 C 
ATOM     29  C   UNL     1       3.184  -7.110  12.573  1.00  0.00     0.089 C 
ATOM     30  C   UNL     1       3.230  -7.205  10.170  1.00  0.00     0.025 C 
ATOM     31  C   UNL     1       4.060  -7.490  11.400  1.00  0.00     0.017 C 
BRANCH  28  32
ATOM     32  C   UNL     1       1.247  -8.800  10.117  1.00  0.00     0.197 C 
BRANCH  32  33
ATOM     33  O   UNL     1       0.066  -9.107  10.299  1.00  0.00    -0.377 OA
ATOM     34  H   UNL     1      -0.517  -8.356  10.024  1.00  0.00     0.212 HD
ENDBRANCH  32  33
BRANCH  32  35
ATOM     35  N   UNL     1       2.130  -9.623   9.575  1.00  0.00    -0.305 NA
ATOM     36  H   UNL     1       1.646 -10.283   8.951  1.00  0.00     0.121 HD
ATOM     37  H   UNL     1       2.819  -9.080   9.035  1.00  0.00     0.121 HD
ENDBRANCH  32  35
ENDBRANCH  28  32
ENDBRANCH  24  27
ENDBRANCH   1  24
TORSDOF 10
ENDMDL
MODEL 4
REMARK VINA RESULT:    -8.385      1.244      2.290
REMARK INTER + INTRA:         -13.742
REMARK INTER:                 -12.390
REMARK INTRA:                  -1.353
REMARK UNBOUND:                -1.190
REMARK SMILES C[C@H]1N[C@@H](N[C@@H](O)N2CCC[C@H]2[C@@H](N)O)S[C@@H]1[C@H]1CCN[C@H](C(C)(C)C(F)(F)F)C1
REMARK SMILES IDX 5 1 4 3 2 4 17 5 3 6 16 7 1 8 18 10 19 11 30 12 20 13 22 14
REMARK SMILES IDX 21 15 23 17 24 18 25 19 26 20 27 21 28 22 29 23 6 24 7 25
REMARK SMILES IDX 8 27 12 28 9 29 11 30 10 31 13 32 15 33 14 35
REMARK H PARENT 5 2 3 9 21 16 7 26 15 34 14 36 14 37
ROOT
ATOM      1  N   UNL     1       0.660  -6.910  14.690  1.00  0.00    -0.255 NA
ATOM      2  H   UNL     1       1.639  -7.148  14.905  1.00  0.00     0.129 HD
ENDROOT
BRANCH   1   3
ATOM      3  C   UNL     1      -0.101  -7.897  15.287  1.00  0.00     0.185 C 
ATOM      4  C   UNL     1      -1.093  -9.868  15.450  1.00  0.00     0.066 C 
ATOM      5  C   UNL     1      -1.456  -9.367  16.696  1.00  0.00     0.069 C 
ATOM      6  N   UNL     1      -0.323  -9.029  14.670  1.00  0.00    -0.290 NA
ATOM      7  S   UNL     1      -0.815  -7.749  16.853  1.00  0.00    -0.122 SA
ATOM      8  C   UNL     1      -1.442 -11.217  14.912  1.00  0.00     0.025 C 
ATOM      9  H   UNL     1       0.578  -9.486  14.469  1.00  0.00     0.125 HD
BRANCH   5  10
ATOM     10  C   UNL     1      -2.247  -9.886  17.834  1.00  0.00     0.006 C 
ATOM     11  C   UNL     1      -3.364 -10.690  17.632  1.00  0.00     0.020 C 
ATOM     12  C   UNL     1      -1.858  -9.594  19.137  1.00  0.00     0.024 C 
ATOM     13  C   UNL     1      -4.069 -11.126  18.732  1.00  0.00     0.081 C 
ATOM     14  C   UNL     1      -2.630 -10.101  20.192  1.00  0.00     0.068 C 
ATOM     15  N   UNL     1      -3.730 -10.840  19.997  1.00  0.00    -0.313 NA
ATOM     16  H   UNL     1      -4.521 -10.334  20.420  1.00  0.00     0.122 HD
BRANCH  14  17
ATOM     17  C   UNL     1      -2.219  -9.873  21.667  1.00  0.00     0.076 C 
ATOM     18  C   UNL     1      -1.874  -8.397  21.927  1.00  0.00     0.022 C 
ATOM     19  C   UNL     1      -3.353 -10.313  22.609  1.00  0.00     0.022 C 
BRANCH  17  20
ATOM     20  C   UNL     1      -0.891 -10.753  22.023  1.00  0.00     0.395 C 
ATOM     21  F   UNL     1       0.214 -10.086  21.692  1.00  0.00    -0.170 F 
ATOM     22  F   UNL     1      -0.795 -11.048  23.314  1.00  0.00    -0.170 F 
ATOM     23  F   UNL     1      -0.872 -11.909  21.369  1.00  0.00    -0.170 F 
ENDBRANCH  17  20
ENDBRANCH  14  17
ENDBRANCH   5  10
ENDBRANCH   1   3
BRANCH   1  24
ATOM     24  C   UNL     1       0.636  -6.609  13.320  1.00  0.00     0.261 C 
BRANCH  24  25
ATOM     25  O   UNL     1      -0.298  -6.007  12.812  1.00  0.00    -0.365 OA
ATOM     26  H   UNL     1      -0.571  -6.465  11.977  1.00  0.00     0.214 HD
ENDBRANCH  24  25
BRANCH  24  27
ATOM     27  N   UNL     1       1.714  -7.021  12.560  1.00  0.00    -0.259 NA
ATOM     28  C   UNL     1       1.489  -7.702  11.274  1.00  0.00     0.104 C 
ATOM     29  C   UNL     1       3.143  -6.856  12.868  1.00  0.00     0.089 C 
ATOM     30  C   UNL     1       2.906  -7.893  10.710  1.00  0.00     0.025 C 
ATOM     31  C   UNL     1       3.824  -7.806  11.907  1.00  0.00     0.017 C 
BRANCH  28  32
ATOM     32  C   UNL     1       0.736  -9.027  11.407  1.00  0.00     0.197 C 
BRANCH  32  33
ATOM     33  O   UNL     1      -0.433  -9.040  11.802  1.00  0.00    -0.377 OA
ATOM     34  H   UNL     1      -0.878  -8.195  11.544  1.00  0.00     0.212 HD
ENDBRANCH  32  33
BRANCH  32  35
ATOM     35  N   UNL     1       1.422 -10.128  11.150  1.00  0.00    -0.305 NA
ATOM     36  H   UNL     1       1.156 -10.863  11.820  1.00  0.00     0.121 HD
ATOM     37  H   UNL     1       1.217 -10.446  10.192  1.00  0.00     0.121 HD
ENDBRANCH  32  35
ENDBRANCH  28  32
ENDBRANCH  24  27
ENDBRANCH   1  24
TORSDOF 10
ENDMDL
MODEL 5
REMARK VINA RESULT:    -8.189      2.156      3.411
REMARK INTER + INTRA:         -13.448
REMARK INTER:                 -12.789
REMARK INTRA:                  -0.659
REMARK UNBOUND:                -1.190
REMARK SMILES C[C@H]1N[C@@H](N[C@@H](O)N2CCC[C@H]2[C@@H](N)O)S[C@@H]1[C@H]1CCN[C@H](C(C)(C)C(F)(F)F)C1
REMARK SMILES IDX 5 1 4 3 2 4 17 5 3 6 16 7 1 8 18 10 19 11 30 12 20 13 22 14
REMARK SMILES IDX 21 15 23 17 24 18 25 19 26 20 27 21 28 22 29 23 6 24 7 25
REMARK SMILES IDX 8 27 12 28 9 29 11 30 10 31 13 32 15 33 14 35
REMARK H PARENT 5 2 3 9 21 16 7 26 15 34 14 36 14 37
ROOT
ATOM      1  N   UNL     1       0.721  -7.942  12.124  1.00  0.00    -0.255 NA
ATOM      2  H   UNL     1       1.654  -7.527  12.262  1.00  0.00     0.129 HD
ENDROOT
BRANCH   1   3
ATOM      3  C   UNL     1       0.264  -8.259  13.389  1.00  0.00     0.185 C 
ATOM      4  C   UNL     1      -0.053  -7.966  15.558  1.00  0.00     0.066 C 
ATOM      5  C   UNL     1      -0.741  -9.168  15.424  1.00  0.00     0.069 C 
ATOM      6  N   UNL     1       0.502  -7.463  14.399  1.00  0.00    -0.290 NA
ATOM      7  S   UNL     1      -0.639  -9.685  13.758  1.00  0.00    -0.122 SA
ATOM      8  C   UNL     1       0.109  -7.185  16.822  1.00  0.00     0.025 C 
ATOM      9  H   UNL     1       0.096  -6.537  14.204  1.00  0.00     0.125 HD
BRANCH   5  10
ATOM     10  C   UNL     1      -1.475 -10.054  16.355  1.00  0.00     0.006 C 
ATOM     11  C   UNL     1      -1.879 -11.329  15.975  1.00  0.00     0.020 C 
ATOM     12  C   UNL     1      -1.748  -9.623  17.650  1.00  0.00     0.024 C 
ATOM     13  C   UNL     1      -2.575 -12.098  16.881  1.00  0.00     0.081 C 
ATOM     14  C   UNL     1      -2.445 -10.486  18.506  1.00  0.00     0.068 C 
ATOM     15  N   UNL     1      -2.872 -11.698  18.126  1.00  0.00    -0.313 NA
ATOM     16  H   UNL     1      -3.898 -11.707  18.216  1.00  0.00     0.122 HD
BRANCH  14  17
ATOM     17  C   UNL     1      -2.724 -10.100  19.979  1.00  0.00     0.076 C 
ATOM     18  C   UNL     1      -2.601  -8.582  20.189  1.00  0.00     0.022 C 
ATOM     19  C   UNL     1      -4.130 -10.568  20.394  1.00  0.00     0.022 C 
BRANCH  17  20
ATOM     20  C   UNL     1      -1.637 -10.817  20.963  1.00  0.00     0.395 C 
ATOM     21  F   UNL     1      -2.036 -10.744  22.232  1.00  0.00    -0.170 F 
ATOM     22  F   UNL     1      -1.457 -12.103  20.687  1.00  0.00    -0.170 F 
ATOM     23  F   UNL     1      -0.442 -10.244  20.884  1.00  0.00    -0.170 F 
ENDBRANCH  17  20
ENDBRANCH  14  17
ENDBRANCH   5  10
ENDBRANCH   1   3
BRANCH   1  24
ATOM     24  C   UNL     1       0.870  -8.867  11.079  1.00  0.00     0.261 C 
BRANCH  24  25
ATOM     25  O   UNL     1      -0.093  -9.306  10.468  1.00  0.00    -0.365 OA
ATOM     26  H   UNL     1      -0.697  -9.775  11.098  1.00  0.00     0.214 HD
ENDBRANCH  24  25
BRANCH  24  27
ATOM     27  N   UNL     1       2.154  -9.266  10.763  1.00  0.00    -0.259 NA
ATOM     28  C   UNL     1       3.256  -8.291  10.793  1.00  0.00     0.104 C 
ATOM     29  C   UNL     1       2.606 -10.615  10.386  1.00  0.00     0.089 C 
ATOM     30  C   UNL     1       4.502  -9.138  10.490  1.00  0.00     0.025 C 
ATOM     31  C   UNL     1       3.981 -10.376   9.800  1.00  0.00     0.017 C 
BRANCH  28  32
ATOM     32  C   UNL     1       3.083  -7.141   9.799  1.00  0.00     0.197 C 
BRANCH  32  33
ATOM     33  O   UNL     1       2.613  -6.062  10.171  1.00  0.00    -0.377 OA
ATOM     34  H   UNL     1       1.684  -6.198  10.484  1.00  0.00     0.212 HD
ENDBRANCH  32  33
BRANCH  32  35
ATOM     35  N   UNL     1       3.390  -7.396   8.537  1.00  0.00    -0.305 NA
ATOM     36  H   UNL     1       2.543  -7.688   8.030  1.00  0.00     0.121 HD
ATOM     37  H   UNL     1       3.777  -6.547   8.100  1.00  0.00     0.121 HD
ENDBRANCH  32  35
ENDBRANCH  28  32
ENDBRANCH  24  27
ENDBRANCH   1  24
TORSDOF 10
ENDMDL
MODEL 6
REMARK VINA RESULT:    -7.971      2.467      3.933
REMARK INTER + INTRA:         -13.123
REMARK INTER:                 -12.572
REMARK INTRA:                  -0.550
REMARK UNBOUND:                -1.190
REMARK SMILES C[C@H]1N[C@@H](N[C@@H](O)N2CCC[C@H]2[C@@H](N)O)S[C@@H]1[C@H]1CCN[C@H](C(C)(C)C(F)(F)F)C1
REMARK SMILES IDX 5 1 4 3 2 4 17 5 3 6 16 7 1 8 18 10 19 11 30 12 20 13 22 14
REMARK SMILES IDX 21 15 23 17 24 18 25 19 26 20 27 21 28 22 29 23 6 24 7 25
REMARK SMILES IDX 8 27 12 28 9 29 11 30 10 31 13 32 15 33 14 35
REMARK H PARENT 5 2 3 9 21 16 7 26 15 34 14 36 14 37
ROOT
ATOM      1  N   UNL     1       0.905  -7.189  12.740  1.00  0.00    -0.255 NA
ATOM      2  H   UNL     1       0.543  -6.228  12.662  1.00  0.00     0.129 HD
ENDROOT
BRANCH   1   3
ATOM      3  C   UNL     1       0.352  -7.701  13.899  1.00  0.00     0.185 C 
ATOM      4  C   UNL     1      -0.259  -7.693  16.025  1.00  0.00     0.066 C 
ATOM      5  C   UNL     1      -0.743  -8.954  15.691  1.00  0.00     0.069 C 
ATOM      6  N   UNL     1       0.351  -6.996  15.001  1.00  0.00    -0.290 NA
ATOM      7  S   UNL     1      -0.370  -9.266  14.012  1.00  0.00    -0.122 SA
ATOM      8  C   UNL     1      -0.363  -7.041  17.365  1.00  0.00     0.025 C 
ATOM      9  H   UNL     1      -0.161  -6.117  14.840  1.00  0.00     0.125 HD
BRANCH   5  10
ATOM     10  C   UNL     1      -1.445 -10.026  16.431  1.00  0.00     0.006 C 
ATOM     11  C   UNL     1      -1.675 -11.272  15.857  1.00  0.00     0.020 C 
ATOM     12  C   UNL     1      -1.864  -9.804  17.739  1.00  0.00     0.024 C 
ATOM     13  C   UNL     1      -2.351 -12.222  16.590  1.00  0.00     0.081 C 
ATOM     14  C   UNL     1      -2.527 -10.840  18.411  1.00  0.00     0.068 C 
ATOM     15  N   UNL     1      -2.785 -12.026  17.843  1.00  0.00    -0.313 NA
ATOM     16  H   UNL     1      -3.808 -12.148  17.837  1.00  0.00     0.122 HD
BRANCH  14  17
ATOM     17  C   UNL     1      -2.960 -10.687  19.890  1.00  0.00     0.076 C 
ATOM     18  C   UNL     1      -2.015 -11.453  20.829  1.00  0.00     0.022 C 
ATOM     19  C   UNL     1      -2.988  -9.199  20.283  1.00  0.00     0.022 C 
BRANCH  17  20
ATOM     20  C   UNL     1      -4.459 -11.298  20.101  1.00  0.00     0.395 C 
ATOM     21  F   UNL     1      -5.242 -10.414  20.717  1.00  0.00    -0.170 F 
ATOM     22  F   UNL     1      -5.056 -11.617  18.959  1.00  0.00    -0.170 F 
ATOM     23  F   UNL     1      -4.445 -12.403  20.839  1.00  0.00    -0.170 F 
ENDBRANCH  17  20
ENDBRANCH  14  17
ENDBRANCH   5  10
ENDBRANCH   1   3
BRANCH   1  24
ATOM     24  C   UNL     1       2.283  -7.096  12.493  1.00  0.00     0.261 C 
BRANCH  24  25
ATOM     25  O   UNL     1       3.085  -6.900  13.394  1.00  0.00    -0.365 OA
ATOM     26  H   UNL     1       2.598  -6.694  14.231  1.00  0.00     0.214 HD
ENDBRANCH  24  25
BRANCH  24  27
ATOM     27  N   UNL     1       2.704  -7.235  11.185  1.00  0.00    -0.259 NA
ATOM     28  C   UNL     1       1.761  -7.699  10.154  1.00  0.00     0.104 C 
ATOM     29  C   UNL     1       4.042  -6.958  10.639  1.00  0.00     0.089 C 
ATOM     30  C   UNL     1       2.573  -7.617   8.852  1.00  0.00     0.025 C 
ATOM     31  C   UNL     1       4.020  -7.635   9.286  1.00  0.00     0.017 C 
BRANCH  28  32
ATOM     32  C   UNL     1       1.220  -9.107  10.410  1.00  0.00     0.197 C 
BRANCH  32  33
ATOM     33  O   UNL     1       1.996 -10.058  10.539  1.00  0.00    -0.377 OA
ATOM     34  H   UNL     1       2.586  -9.898  11.317  1.00  0.00     0.212 HD
ENDBRANCH  32  33
BRANCH  32  35
ATOM     35  N   UNL     1      -0.096  -9.246  10.409  1.00  0.00    -0.305 NA
ATOM     36  H   UNL     1      -0.478  -8.905  11.302  1.00  0.00     0.121 HD
ATOM     37  H   UNL     1      -0.499  -8.702   9.632  1.00  0.00     0.121 HD
ENDBRANCH  32  35
ENDBRANCH  28  32
ENDBRANCH  24  27
ENDBRANCH   1  24
TORSDOF 10
ENDMDL
MODEL 7
REMARK VINA RESULT:    -7.865      2.168      3.586
REMARK INTER + INTRA:         -12.963
REMARK INTER:                 -11.808
REMARK INTRA:                  -1.155
REMARK UNBOUND:                -1.190
REMARK SMILES C[C@H]1N[C@@H](N[C@@H](O)N2CCC[C@H]2[C@@H](N)O)S[C@@H]1[C@H]1CCN[C@H](C(C)(C)C(F)(F)F)C1
REMARK SMILES IDX 5 1 4 3 2 4 17 5 3 6 16 7 1 8 18 10 19 11 30 12 20 13 22 14
REMARK SMILES IDX 21 15 23 17 24 18 25 19 26 20 27 21 28 22 29 23 6 24 7 25
REMARK SMILES IDX 8 27 12 28 9 29 11 30 10 31 13 32 15 33 14 35
REMARK H PARENT 5 2 3 9 21 16 7 26 15 34 14 36 14 37
ROOT
ATOM      1  N   UNL     1       0.994  -6.965  12.861  1.00  0.00    -0.255 NA
ATOM      2  H   UNL     1       0.811  -5.953  12.905  1.00  0.00     0.129 HD
ENDROOT
BRANCH   1   3
ATOM      3  C   UNL     1       0.360  -7.506  13.964  1.00  0.00     0.185 C 
ATOM      4  C   UNL     1      -0.614  -9.088  15.165  1.00  0.00     0.066 C 
ATOM      5  C   UNL     1      -0.687  -8.063  16.103  1.00  0.00     0.069 C 
ATOM      6  N   UNL     1      -0.015  -8.759  13.966  1.00  0.00    -0.290 NA
ATOM      7  S   UNL     1       0.007  -6.619  15.404  1.00  0.00    -0.122 SA
ATOM      8  C   UNL     1      -1.101 -10.487  15.357  1.00  0.00     0.025 C 
ATOM      9  H   UNL     1       0.810  -9.359  13.825  1.00  0.00     0.125 HD
BRANCH   5  10
ATOM     10  C   UNL     1      -1.222  -7.949  17.478  1.00  0.00     0.006 C 
ATOM     11  C   UNL     1      -1.236  -6.733  18.152  1.00  0.00     0.020 C 
ATOM     12  C   UNL     1      -1.751  -9.071  18.108  1.00  0.00     0.024 C 
ATOM     13  C   UNL     1      -1.730  -6.696  19.437  1.00  0.00     0.081 C 
ATOM     14  C   UNL     1      -2.250  -8.929  19.411  1.00  0.00     0.068 C 
ATOM     15  N   UNL     1      -2.224  -7.766  20.076  1.00  0.00    -0.313 NA
ATOM     16  H   UNL     1      -1.655  -7.908  20.924  1.00  0.00     0.122 HD
BRANCH  14  17
ATOM     17  C   UNL     1      -2.914 -10.118  20.148  1.00  0.00     0.076 C 
ATOM     18  C   UNL     1      -4.012  -9.634  21.109  1.00  0.00     0.022 C 
ATOM     19  C   UNL     1      -3.513 -11.105  19.131  1.00  0.00     0.022 C 
BRANCH  17  20
ATOM     20  C   UNL     1      -1.804 -10.916  21.040  1.00  0.00     0.395 C 
ATOM     21  F   UNL     1      -2.243 -11.092  22.285  1.00  0.00    -0.170 F 
ATOM     22  F   UNL     1      -1.517 -12.119  20.555  1.00  0.00    -0.170 F 
ATOM     23  F   UNL     1      -0.654 -10.255  21.110  1.00  0.00    -0.170 F 
ENDBRANCH  17  20
ENDBRANCH  14  17
ENDBRANCH   5  10
ENDBRANCH   1   3
BRANCH   1  24
ATOM     24  C   UNL     1       2.366  -7.090  12.596  1.00  0.00     0.261 C 
BRANCH  24  25
ATOM     25  O   UNL     1       3.199  -7.051  13.488  1.00  0.00    -0.365 OA
ATOM     26  H   UNL     1       3.735  -7.883  13.476  1.00  0.00     0.214 HD
ENDBRANCH  24  25
BRANCH  24  27
ATOM     27  N   UNL     1       2.744  -7.260  11.278  1.00  0.00    -0.259 NA
ATOM     28  C   UNL     1       1.765  -7.736  10.287  1.00  0.00     0.104 C 
ATOM     29  C   UNL     1       4.067  -7.009  10.685  1.00  0.00     0.089 C 
ATOM     30  C   UNL     1       2.536  -7.689   8.959  1.00  0.00     0.025 C 
ATOM     31  C   UNL     1       3.996  -7.713   9.347  1.00  0.00     0.017 C 
BRANCH  28  32
ATOM     32  C   UNL     1       1.218  -9.133  10.589  1.00  0.00     0.197 C 
BRANCH  32  33
ATOM     33  O   UNL     1       1.983 -10.100  10.653  1.00  0.00    -0.377 OA
ATOM     34  H   UNL     1       2.171 -10.432   9.740  1.00  0.00     0.212 HD
ENDBRANCH  32  33
BRANCH  32  35
ATOM     35  N   UNL     1      -0.096  -9.245  10.700  1.00  0.00    -0.305 NA
ATOM     36  H   UNL     1      -0.368  -9.130  11.686  1.00  0.00     0.121 HD
ATOM     37  H   UNL     1      -0.552  -8.518  10.130  1.00  0.00     0.121 HD
ENDBRANCH  32  35
ENDBRANCH  28  32
ENDBRANCH  24  27
ENDBRANCH   1  24
TORSDOF 10
ENDMDL
MODEL 8
REMARK VINA RESULT:    -7.832      2.258      3.494
REMARK INTER + INTRA:         -12.915
REMARK INTER:                 -11.645
REMARK INTRA:                  -1.270
REMARK UNBOUND:                -1.190
REMARK SMILES C[C@H]1N[C@@H](N[C@@H](O)N2CCC[C@H]2[C@@H](N)O)S[C@@H]1[C@H]1CCN[C@H](C(C)(C)C(F)(F)F)C1
REMARK SMILES IDX 5 1 4 3 2 4 17 5 3 6 16 7 1 8 18 10 19 11 30 12 20 13 22 14
REMARK SMILES IDX 21 15 23 17 24 18 25 19 26 20 27 21 28 22 29 23 6 24 7 25
REMARK SMILES IDX 8 27 12 28 9 29 11 30 10 31 13 32 15 33 14 35
REMARK H PARENT 5 2 3 9 21 16 7 26 15 34 14 36 14 37
ROOT
ATOM      1  N   UNL     1       1.253  -6.516  14.429  1.00  0.00    -0.255 NA
ATOM      2  H   UNL     1       2.177  -6.957  14.536  1.00  0.00     0.129 HD
ENDROOT
BRANCH   1   3
ATOM      3  C   UNL     1       0.433  -7.146  15.347  1.00  0.00     0.185 C 
ATOM      4  C   UNL     1      -0.912  -8.729  16.106  1.00  0.00     0.066 C 
ATOM      5  C   UNL     1      -0.890  -7.933  17.247  1.00  0.00     0.069 C 
ATOM      6  N   UNL     1      -0.155  -8.275  15.045  1.00  0.00    -0.290 NA
ATOM      7  S   UNL     1       0.110  -6.535  16.930  1.00  0.00    -0.122 SA
ATOM      8  C   UNL     1      -1.654 -10.017  15.951  1.00  0.00     0.025 C 
ATOM      9  H   UNL     1       0.560  -8.979  14.815  1.00  0.00     0.125 HD
BRANCH   5  10
ATOM     10  C   UNL     1      -1.523  -8.013  18.582  1.00  0.00     0.006 C 
ATOM     11  C   UNL     1      -1.950  -6.872  19.251  1.00  0.00     0.020 C 
ATOM     12  C   UNL     1      -1.725  -9.254  19.178  1.00  0.00     0.024 C 
ATOM     13  C   UNL     1      -2.514  -7.011  20.500  1.00  0.00     0.081 C 
ATOM     14  C   UNL     1      -2.326  -9.296  20.444  1.00  0.00     0.068 C 
ATOM     15  N   UNL     1      -2.699  -8.192  21.107  1.00  0.00    -0.313 NA
ATOM     16  H   UNL     1      -2.171  -8.170  21.991  1.00  0.00     0.122 HD
BRANCH  14  17
ATOM     17  C   UNL     1      -2.643 -10.644  21.137  1.00  0.00     0.076 C 
ATOM     18  C   UNL     1      -1.481 -11.638  20.976  1.00  0.00     0.022 C 
ATOM     19  C   UNL     1      -2.928 -10.418  22.632  1.00  0.00     0.022 C 
BRANCH  17  20
ATOM     20  C   UNL     1      -3.964 -11.325  20.462  1.00  0.00     0.395 C 
ATOM     21  F   UNL     1      -4.987 -10.472  20.474  1.00  0.00    -0.170 F 
ATOM     22  F   UNL     1      -3.774 -11.686  19.199  1.00  0.00    -0.170 F 
ATOM     23  F   UNL     1      -4.346 -12.418  21.113  1.00  0.00    -0.170 F 
ENDBRANCH  17  20
ENDBRANCH  14  17
ENDBRANCH   5  10
ENDBRANCH   1   3
BRANCH   1  24
ATOM     24  C   UNL     1       1.011  -6.473  13.048  1.00  0.00     0.261 C 
BRANCH  24  25
ATOM     25  O   UNL     1       0.006  -5.952  12.588  1.00  0.00    -0.365 OA
ATOM     26  H   UNL     1      -0.155  -5.087  13.043  1.00  0.00     0.214 HD
ENDBRANCH  24  25
BRANCH  24  27
ATOM     27  N   UNL     1       1.957  -7.046  12.220  1.00  0.00    -0.259 NA
ATOM     28  C   UNL     1       1.531  -7.845  11.059  1.00  0.00     0.104 C 
ATOM     29  C   UNL     1       3.421  -6.956  12.334  1.00  0.00     0.089 C 
ATOM     30  C   UNL     1       2.851  -8.203  10.358  1.00  0.00     0.025 C 
ATOM     31  C   UNL     1       3.916  -8.054  11.419  1.00  0.00     0.017 C 
BRANCH  28  32
ATOM     32  C   UNL     1       0.722  -9.088  11.437  1.00  0.00     0.197 C 
BRANCH  32  33
ATOM     33  O   UNL     1      -0.368  -8.971  12.005  1.00  0.00    -0.377 OA
ATOM     34  H   UNL     1      -0.439  -9.648  12.723  1.00  0.00     0.212 HD
ENDBRANCH  32  33
BRANCH  32  35
ATOM     35  N   UNL     1       1.284 -10.260  11.189  1.00  0.00    -0.305 NA
ATOM     36  H   UNL     1       2.212 -10.114  10.769  1.00  0.00     0.121 HD
ATOM     37  H   UNL     1       1.384 -10.785  12.070  1.00  0.00     0.121 HD
ENDBRANCH  32  35
ENDBRANCH  28  32
ENDBRANCH  24  27
ENDBRANCH   1  24
TORSDOF 10
ENDMDL
MODEL 9
REMARK VINA RESULT:    -7.824      2.337      3.197
REMARK INTER + INTRA:         -12.902
REMARK INTER:                 -12.505
REMARK INTRA:                  -0.397
REMARK UNBOUND:                -1.190
REMARK SMILES C[C@H]1N[C@@H](N[C@@H](O)N2CCC[C@H]2[C@@H](N)O)S[C@@H]1[C@H]1CCN[C@H](C(C)(C)C(F)(F)F)C1
REMARK SMILES IDX 5 1 4 3 2 4 17 5 3 6 16 7 1 8 18 10 19 11 30 12 20 13 22 14
REMARK SMILES IDX 21 15 23 17 24 18 25 19 26 20 27 21 28 22 29 23 6 24 7 25
REMARK SMILES IDX 8 27 12 28 9 29 11 30 10 31 13 32 15 33 14 35
REMARK H PARENT 5 2 3 9 21 16 7 26 15 34 14 36 14 37
ROOT
ATOM      1  N   UNL     1      -0.288  -9.262  12.344  1.00  0.00    -0.255 NA
ATOM      2  H   UNL     1      -1.127  -8.961  11.827  1.00  0.00     0.129 HD
ENDROOT
BRANCH   1   3
ATOM      3  C   UNL     1      -0.687  -9.385  13.661  1.00  0.00     0.185 C 
ATOM      4  C   UNL     1      -0.740  -8.884  15.815  1.00  0.00     0.066 C 
ATOM      5  C   UNL     1      -1.675  -9.913  15.835  1.00  0.00     0.069 C 
ATOM      6  N   UNL     1      -0.197  -8.593  14.580  1.00  0.00    -0.290 NA
ATOM      7  S   UNL     1      -1.833 -10.552  14.216  1.00  0.00    -0.122 SA
ATOM      8  C   UNL     1      -0.304  -8.072  16.992  1.00  0.00     0.025 C 
ATOM      9  H   UNL     1      -0.415  -7.617  14.336  1.00  0.00     0.125 HD
BRANCH   5  10
ATOM     10  C   UNL     1      -2.493 -10.553  16.889  1.00  0.00     0.006 C 
ATOM     11  C   UNL     1      -3.425 -11.539  16.585  1.00  0.00     0.020 C 
ATOM     12  C   UNL     1      -2.314 -10.188  18.220  1.00  0.00     0.024 C 
ATOM     13  C   UNL     1      -4.169 -12.083  17.609  1.00  0.00     0.081 C 
ATOM     14  C   UNL     1      -3.106 -10.812  19.194  1.00  0.00     0.068 C 
ATOM     15  N   UNL     1      -4.034 -11.732  18.896  1.00  0.00    -0.313 NA
ATOM     16  H   UNL     1      -4.943 -11.367  19.213  1.00  0.00     0.122 HD
BRANCH  14  17
ATOM     17  C   UNL     1      -2.915 -10.505  20.699  1.00  0.00     0.076 C 
ATOM     18  C   UNL     1      -1.812 -11.383  21.311  1.00  0.00     0.022 C 
ATOM     19  C   UNL     1      -2.563  -9.020  20.897  1.00  0.00     0.022 C 
BRANCH  17  20
ATOM     20  C   UNL     1      -4.293 -10.815  21.516  1.00  0.00     0.395 C 
ATOM     21  F   UNL     1      -4.455 -12.128  21.679  1.00  0.00    -0.170 F 
ATOM     22  F   UNL     1      -4.315 -10.268  22.725  1.00  0.00    -0.170 F 
ATOM     23  F   UNL     1      -5.363 -10.357  20.876  1.00  0.00    -0.170 F 
ENDBRANCH  17  20
ENDBRANCH  14  17
ENDBRANCH   5  10
ENDBRANCH   1   3
BRANCH   1  24
ATOM     24  C   UNL     1       0.748  -8.424  11.904  1.00  0.00     0.261 C 
BRANCH  24  25
ATOM     25  O   UNL     1       0.736  -7.221  12.117  1.00  0.00    -0.365 OA
ATOM     26  H   UNL     1       1.318  -6.764  11.460  1.00  0.00     0.214 HD
ENDBRANCH  24  25
BRANCH  24  27
ATOM     27  N   UNL     1       1.791  -9.013  11.215  1.00  0.00    -0.259 NA
ATOM     28  C   UNL     1       2.950  -8.203  10.805  1.00  0.00     0.104 C 
ATOM     29  C   UNL     1       1.921 -10.424  10.818  1.00  0.00     0.089 C 
ATOM     30  C   UNL     1       3.908  -9.229  10.177  1.00  0.00     0.025 C 
ATOM     31  C   UNL     1       3.037 -10.403   9.796  1.00  0.00     0.017 C 
BRANCH  28  32
ATOM     32  C   UNL     1       2.595  -7.074   9.835  1.00  0.00     0.197 C 
BRANCH  32  33
ATOM     33  O   UNL     1       2.087  -7.332   8.740  1.00  0.00    -0.377 OA
ATOM     34  H   UNL     1       1.209  -7.767   8.879  1.00  0.00     0.212 HD
ENDBRANCH  32  33
BRANCH  32  35
ATOM     35  N   UNL     1       2.928  -5.848  10.204  1.00  0.00    -0.305 NA
ATOM     36  H   UNL     1       2.103  -5.235  10.141  1.00  0.00     0.121 HD
ATOM     37  H   UNL     1       3.271  -5.863  11.175  1.00  0.00     0.121 HD
ENDBRANCH  32  35
ENDBRANCH  28  32
ENDBRANCH  24  27
ENDBRANCH   1  24
TORSDOF 10
ENDMDL
MODEL 10
REMARK VINA RESULT:    -7.797      2.096      3.040
REMARK INTER + INTRA:         -12.862
REMARK INTER:                 -11.379
REMARK INTRA:                  -1.483
REMARK UNBOUND:                -1.190
REMARK SMILES C[C@H]1N[C@@H](N[C@@H](O)N2CCC[C@H]2[C@@H](N)O)S[C@@H]1[C@H]1CCN[C@H](C(C)(C)C(F)(F)F)C1
REMARK SMILES IDX 5 1 4 3 2 4 17 5 3 6 16 7 1 8 18 10 19 11 30 12 20 13 22 14
REMARK SMILES IDX 21 15 23 17 24 18 25 19 26 20 27 21 28 22 29 23 6 24 7 25
REMARK SMILES IDX 8 27 12 28 9 29 11 30 10 31 13 32 15 33 14 35
REMARK H PARENT 5 2 3 9 21 16 7 26 15 34 14 36 14 37
ROOT
ATOM      1  N   UNL     1       0.766  -7.676  13.939  1.00  0.00    -0.255 NA
ATOM      2  H   UNL     1       0.663  -8.388  13.202  1.00  0.00     0.129 HD
ENDROOT
BRANCH   1   3
ATOM      3  C   UNL     1      -0.112  -8.048  14.939  1.00  0.00     0.185 C 
ATOM      4  C   UNL     1      -1.365  -7.764  16.740  1.00  0.00     0.066 C 
ATOM      5  C   UNL     1      -1.686  -9.095  16.491  1.00  0.00     0.069 C 
ATOM      6  N   UNL     1      -0.481  -7.186  15.852  1.00  0.00    -0.290 NA
ATOM      7  S   UNL     1      -0.791  -9.629  15.087  1.00  0.00    -0.122 SA
ATOM      8  C   UNL     1      -1.907  -6.926  17.852  1.00  0.00     0.025 C 
ATOM      9  H   UNL     1      -0.938  -6.384  15.394  1.00  0.00     0.125 HD
BRANCH   5  10
ATOM     10  C   UNL     1      -2.558 -10.094  17.148  1.00  0.00     0.006 C 
ATOM     11  C   UNL     1      -3.143 -11.130  16.428  1.00  0.00     0.020 C 
ATOM     12  C   UNL     1      -2.781 -10.021  18.520  1.00  0.00     0.024 C 
ATOM     13  C   UNL     1      -3.960 -12.017  17.094  1.00  0.00     0.081 C 
ATOM     14  C   UNL     1      -3.612 -10.983  19.111  1.00  0.00     0.068 C 
ATOM     15  N   UNL     1      -4.210 -11.955  18.410  1.00  0.00    -0.313 NA
ATOM     16  H   UNL     1      -5.227 -11.838  18.525  1.00  0.00     0.122 HD
BRANCH  14  17
ATOM     17  C   UNL     1      -3.851 -11.003  20.641  1.00  0.00     0.076 C 
ATOM     18  C   UNL     1      -4.556  -9.720  21.111  1.00  0.00     0.022 C 
ATOM     19  C   UNL     1      -4.694 -12.230  21.030  1.00  0.00     0.022 C 
BRANCH  17  20
ATOM     20  C   UNL     1      -2.425 -11.093  21.430  1.00  0.00     0.395 C 
ATOM     21  F   UNL     1      -2.610 -11.505  22.683  1.00  0.00    -0.170 F 
ATOM     22  F   UNL     1      -1.571 -11.938  20.864  1.00  0.00    -0.170 F 
ATOM     23  F   UNL     1      -1.812  -9.916  21.482  1.00  0.00    -0.170 F 
ENDBRANCH  17  20
ENDBRANCH  14  17
ENDBRANCH   5  10
ENDBRANCH   1   3
BRANCH   1  24
ATOM     24  C   UNL     1       0.737  -6.439  13.278  1.00  0.00     0.261 C 
BRANCH  24  25
ATOM     25  O   UNL     1      -0.311  -5.937  12.900  1.00  0.00    -0.365 OA
ATOM     26  H   UNL     1      -0.465  -6.170  11.950  1.00  0.00     0.214 HD
ENDBRANCH  24  25
BRANCH  24  27
ATOM     27  N   UNL     1       1.946  -5.804  13.066  1.00  0.00    -0.259 NA
ATOM     28  C   UNL     1       3.040  -5.964  14.038  1.00  0.00     0.104 C 
ATOM     29  C   UNL     1       2.321  -4.944  11.933  1.00  0.00     0.089 C 
ATOM     30  C   UNL     1       4.212  -5.204  13.397  1.00  0.00     0.025 C 
ATOM     31  C   UNL     1       3.574  -4.248  12.416  1.00  0.00     0.017 C 
BRANCH  28  32
ATOM     32  C   UNL     1       2.702  -5.435  15.433  1.00  0.00     0.197 C 
BRANCH  32  33
ATOM     33  O   UNL     1       2.601  -4.221  15.630  1.00  0.00    -0.377 OA
ATOM     34  H   UNL     1       1.741  -3.898  15.263  1.00  0.00     0.212 HD
ENDBRANCH  32  33
BRANCH  32  35
ATOM     35  N   UNL     1       2.602  -6.333  16.400  1.00  0.00    -0.305 NA
ATOM     36  H   UNL     1       3.243  -7.116  16.209  1.00  0.00     0.121 HD
ATOM     37  H   UNL     1       2.851  -5.897  17.300  1.00  0.00     0.121 HD
ENDBRANCH  32  35
ENDBRANCH  28  32
ENDBRANCH  24  27
ENDBRANCH   1  24
TORSDOF 10
ENDMDL
MODEL 11
REMARK VINA RESULT:    -7.758      3.470      5.248
REMARK INTER + INTRA:         -12.804
REMARK INTER:                 -11.934
REMARK INTRA:                  -0.870
REMARK UNBOUND:                -1.190
REMARK SMILES C[C@H]1N[C@@H](N[C@@H](O)N2CCC[C@H]2[C@@H](N)O)S[C@@H]1[C@H]1CCN[C@H](C(C)(C)C(F)(F)F)C1
REMARK SMILES IDX 5 1 4 3 2 4 17 5 3 6 16 7 1 8 18 10 19 11 30 12 20 13 22 14
REMARK SMILES IDX 21 15 23 17 24 18 25 19 26 20 27 21 28 22 29 23 6 24 7 25
REMARK SMILES IDX 8 27 12 28 9 29 11 30 10 31 13 32 15 33 14 35
REMARK H PARENT 5 2 3 9 21 16 7 26 15 34 14 36 14 37
ROOT
ATOM      1  N   UNL     1       1.394  -6.346  12.413  1.00  0.00    -0.255 NA
ATOM      2  H   UNL     1       1.542  -5.330  12.330  1.00  0.00     0.129 HD
ENDROOT
BRANCH   1   3
ATOM      3  C   UNL     1       0.771  -6.533  13.632  1.00  0.00     0.185 C 
ATOM      4  C   UNL     1       0.012  -5.952  15.628  1.00  0.00     0.066 C 
ATOM      5  C   UNL     1      -0.421  -7.274  15.635  1.00  0.00     0.069 C 
ATOM      6  N   UNL     1       0.678  -5.547  14.488  1.00  0.00    -0.290 NA
ATOM      7  S   UNL     1       0.075  -8.031  14.140  1.00  0.00    -0.122 SA
ATOM      8  C   UNL     1      -0.200  -4.954  16.719  1.00  0.00     0.025 C 
ATOM      9  H   UNL     1       0.161  -4.770  14.053  1.00  0.00     0.125 HD
BRANCH   5  10
ATOM     10  C   UNL     1      -1.151  -8.122  16.603  1.00  0.00     0.006 C 
ATOM     11  C   UNL     1      -1.452  -7.666  17.882  1.00  0.00     0.020 C 
ATOM     12  C   UNL     1      -1.575  -9.393  16.228  1.00  0.00     0.024 C 
ATOM     13  C   UNL     1      -2.117  -8.511  18.744  1.00  0.00     0.081 C 
ATOM     14  C   UNL     1      -2.263 -10.171  17.170  1.00  0.00     0.068 C 
ATOM     15  N   UNL     1      -2.515  -9.748  18.416  1.00  0.00    -0.313 NA
ATOM     16  H   UNL     1      -2.053 -10.402  19.063  1.00  0.00     0.122 HD
BRANCH  14  17
ATOM     17  C   UNL     1      -2.822 -11.566  16.800  1.00  0.00     0.076 C 
ATOM     18  C   UNL     1      -1.707 -12.625  16.778  1.00  0.00     0.022 C 
ATOM     19  C   UNL     1      -3.912 -11.984  17.803  1.00  0.00     0.022 C 
BRANCH  17  20
ATOM     20  C   UNL     1      -3.488 -11.528  15.311  1.00  0.00     0.395 C 
ATOM     21  F   UNL     1      -4.443 -10.601  15.249  1.00  0.00    -0.170 F 
ATOM     22  F   UNL     1      -2.609 -11.245  14.357  1.00  0.00    -0.170 F 
ATOM     23  F   UNL     1      -4.038 -12.692  14.982  1.00  0.00    -0.170 F 
ENDBRANCH  17  20
ENDBRANCH  14  17
ENDBRANCH   5  10
ENDBRANCH   1   3
BRANCH   1  24
ATOM     24  C   UNL     1       2.612  -6.937  12.045  1.00  0.00     0.261 C 
BRANCH  24  25
ATOM     25  O   UNL     1       3.467  -7.214  12.873  1.00  0.00    -0.365 OA
ATOM     26  H   UNL     1       3.659  -8.185  12.837  1.00  0.00     0.214 HD
ENDBRANCH  24  25
BRANCH  24  27
ATOM     27  N   UNL     1       2.811  -7.197  10.703  1.00  0.00    -0.259 NA
ATOM     28  C   UNL     1       1.713  -7.743   9.888  1.00  0.00     0.104 C 
ATOM     29  C   UNL     1       4.039  -6.984   9.921  1.00  0.00     0.089 C 
ATOM     30  C   UNL     1       2.299  -7.786   8.468  1.00  0.00     0.025 C 
ATOM     31  C   UNL     1       3.797  -7.779   8.657  1.00  0.00     0.017 C 
BRANCH  28  32
ATOM     32  C   UNL     1       1.229  -9.117  10.356  1.00  0.00     0.197 C 
BRANCH  32  33
ATOM     33  O   UNL     1       2.020 -10.061  10.437  1.00  0.00    -0.377 OA
ATOM     34  H   UNL     1       2.927  -9.715  10.631  1.00  0.00     0.212 HD
ENDBRANCH  32  33
BRANCH  32  35
ATOM     35  N   UNL     1      -0.067  -9.242  10.589  1.00  0.00    -0.305 NA
ATOM     36  H   UNL     1      -0.594  -8.667   9.917  1.00  0.00     0.121 HD
ATOM     37  H   UNL     1      -0.342 -10.229  10.486  1.00  0.00     0.121 HD
ENDBRANCH  32  35
ENDBRANCH  28  32
ENDBRANCH  24  27
ENDBRANCH   1  24
TORSDOF 10
ENDMDL
MODEL 12
REMARK VINA RESULT:    -7.712      3.470      5.225
REMARK INTER + INTRA:         -12.734
REMARK INTER:                 -12.137
REMARK INTRA:                  -0.597
REMARK UNBOUND:                -1.190
REMARK SMILES C[C@H]1N[C@@H](N[C@@H](O)N2CCC[C@H]2[C@@H](N)O)S[C@@H]1[C@H]1CCN[C@H](C(C)(C)C(F)(F)F)C1
REMARK SMILES IDX 5 1 4 3 2 4 17 5 3 6 16 7 1 8 18 10 19 11 30 12 20 13 22 14
REMARK SMILES IDX 21 15 23 17 24 18 25 19 26 20 27 21 28 22 29 23 6 24 7 25
REMARK SMILES IDX 8 27 12 28 9 29 11 30 10 31 13 32 15 33 14 35
REMARK H PARENT 5 2 3 9 21 16 7 26 15 34 14 36 14 37
ROOT
ATOM      1  N   UNL     1       1.129  -7.594  11.592  1.00  0.00    -0.255 NA
ATOM      2  H   UNL     1       2.094  -7.235  11.575  1.00  0.00     0.129 HD
ENDROOT
BRANCH   1   3
ATOM      3  C   UNL     1       0.782  -7.666  12.927  1.00  0.00     0.185 C 
ATOM      4  C   UNL     1       0.862  -7.126  15.071  1.00  0.00     0.066 C 
ATOM      5  C   UNL     1      -0.140  -8.087  15.153  1.00  0.00     0.069 C 
ATOM      6  N   UNL     1       1.367  -6.895  13.808  1.00  0.00    -0.290 NA
ATOM      7  S   UNL     1      -0.416  -8.741  13.556  1.00  0.00    -0.122 SA
ATOM      8  C   UNL     1       1.405  -6.327  16.211  1.00  0.00     0.025 C 
ATOM      9  H   UNL     1       1.207  -5.910  13.554  1.00  0.00     0.125 HD
BRANCH   5  10
ATOM     10  C   UNL     1      -0.952  -8.650  16.255  1.00  0.00     0.006 C 
ATOM     11  C   UNL     1      -1.170  -7.939  17.430  1.00  0.00     0.020 C 
ATOM     12  C   UNL     1      -1.537  -9.904  16.112  1.00  0.00     0.024 C 
ATOM     13  C   UNL     1      -1.918  -8.525  18.427  1.00  0.00     0.081 C 
ATOM     14  C   UNL     1      -2.300 -10.408  17.175  1.00  0.00     0.068 C 
ATOM     15  N   UNL     1      -2.474  -9.741  18.324  1.00  0.00    -0.313 NA
ATOM     16  H   UNL     1      -2.084 -10.322  19.080  1.00  0.00     0.122 HD
BRANCH  14  17
ATOM     17  C   UNL     1      -3.035 -11.766  17.060  1.00  0.00     0.076 C 
ATOM     18  C   UNL     1      -2.044 -12.940  17.095  1.00  0.00     0.022 C 
ATOM     19  C   UNL     1      -4.055 -11.915  18.202  1.00  0.00     0.022 C 
BRANCH  17  20
ATOM     20  C   UNL     1      -3.840 -11.850  15.643  1.00  0.00     0.395 C 
ATOM     21  F   UNL     1      -2.985 -11.940  14.625  1.00  0.00    -0.170 F 
ATOM     22  F   UNL     1      -4.647 -12.901  15.566  1.00  0.00    -0.170 F 
ATOM     23  F   UNL     1      -4.597 -10.778  15.437  1.00  0.00    -0.170 F 
ENDBRANCH  17  20
ENDBRANCH  14  17
ENDBRANCH   5  10
ENDBRANCH   1   3
BRANCH   1  24
ATOM     24  C   UNL     1       1.115  -8.684  10.709  1.00  0.00     0.261 C 
BRANCH  24  25
ATOM     25  O   UNL     1       0.070  -9.191  10.330  1.00  0.00    -0.365 OA
ATOM     26  H   UNL     1      -0.289  -9.778  11.042  1.00  0.00     0.214 HD
ENDBRANCH  24  25
BRANCH  24  27
ATOM     27  N   UNL     1       2.336  -9.168  10.278  1.00  0.00    -0.259 NA
ATOM     28  C   UNL     1       3.339  -8.244   9.723  1.00  0.00     0.104 C 
ATOM     29  C   UNL     1       2.809 -10.561  10.308  1.00  0.00     0.089 C 
ATOM     30  C   UNL     1       4.561  -9.141   9.470  1.00  0.00     0.025 C 
ATOM     31  C   UNL     1       4.012 -10.546   9.389  1.00  0.00     0.017 C 
BRANCH  28  32
ATOM     32  C   UNL     1       2.874  -7.528   8.453  1.00  0.00     0.197 C 
BRANCH  32  33
ATOM     33  O   UNL     1       2.980  -6.302   8.356  1.00  0.00    -0.377 OA
ATOM     34  H   UNL     1       2.570  -6.003   7.506  1.00  0.00     0.212 HD
ENDBRANCH  32  33
BRANCH  32  35
ATOM     35  N   UNL     1       2.301  -8.277   7.525  1.00  0.00    -0.305 NA
ATOM     36  H   UNL     1       2.742  -8.093   6.614  1.00  0.00     0.121 HD
ATOM     37  H   UNL     1       2.416  -9.272   7.767  1.00  0.00     0.121 HD
ENDBRANCH  32  35
ENDBRANCH  28  32
ENDBRANCH  24  27
ENDBRANCH   1  24
TORSDOF 10
ENDMDL
MODEL 13
REMARK VINA RESULT:    -7.675      1.555      2.442
REMARK INTER + INTRA:         -12.680
REMARK INTER:                 -12.164
REMARK INTRA:                  -0.515
REMARK UNBOUND:                -1.190
REMARK SMILES C[C@H]1N[C@@H](N[C@@H](O)N2CCC[C@H]2[C@@H](N)O)S[C@@H]1[C@H]1CCN[C@H](C(C)(C)C(F)(F)F)C1
REMARK SMILES IDX 5 1 4 3 2 4 17 5 3 6 16 7 1 8 18 10 19 11 30 12 20 13 22 14
REMARK SMILES IDX 21 15 23 17 24 18 25 19 26 20 27 21 28 22 29 23 6 24 7 25
REMARK SMILES IDX 8 27 12 28 9 29 11 30 10 31 13 32 15 33 14 35
REMARK H PARENT 5 2 3 9 21 16 7 26 15 34 14 36 14 37
ROOT
ATOM      1  N   UNL     1      -0.011  -9.207  13.641  1.00  0.00    -0.255 NA
ATOM      2  H   UNL     1      -0.388  -9.426  12.708  1.00  0.00     0.129 HD
ENDROOT
BRANCH   1   3
ATOM      3  C   UNL     1      -0.920  -9.730  14.541  1.00  0.00     0.185 C 
ATOM      4  C   UNL     1      -2.680 -10.903  15.189  1.00  0.00     0.066 C 
ATOM      5  C   UNL     1      -2.267 -10.467  16.444  1.00  0.00     0.069 C 
ATOM      6  N   UNL     1      -1.905 -10.484  14.126  1.00  0.00    -0.290 NA
ATOM      7  S   UNL     1      -0.856  -9.455  16.245  1.00  0.00    -0.122 SA
ATOM      8  C   UNL     1      -3.853 -11.786  14.910  1.00  0.00     0.025 C 
ATOM      9  H   UNL     1      -1.520 -11.308  13.644  1.00  0.00     0.125 HD
BRANCH   5  10
ATOM     10  C   UNL     1      -2.766 -10.656  17.825  1.00  0.00     0.006 C 
ATOM     11  C   UNL     1      -3.892 -11.427  18.089  1.00  0.00     0.020 C 
ATOM     12  C   UNL     1      -2.085 -10.076  18.891  1.00  0.00     0.024 C 
ATOM     13  C   UNL     1      -4.317 -11.549  19.394  1.00  0.00     0.081 C 
ATOM     14  C   UNL     1      -2.584 -10.273  20.187  1.00  0.00     0.068 C 
ATOM     15  N   UNL     1      -3.694 -10.982  20.437  1.00  0.00    -0.313 NA
ATOM     16  H   UNL     1      -4.368 -10.350  20.891  1.00  0.00     0.122 HD
BRANCH  14  17
ATOM     17  C   UNL     1      -1.842  -9.715  21.425  1.00  0.00     0.076 C 
ATOM     18  C   UNL     1      -2.305 -10.413  22.713  1.00  0.00     0.022 C 
ATOM     19  C   UNL     1      -0.322  -9.892  21.257  1.00  0.00     0.022 C 
BRANCH  17  20
ATOM     20  C   UNL     1      -2.154  -8.122  21.595  1.00  0.00     0.395 C 
ATOM     21  F   UNL     1      -2.304  -7.810  22.882  1.00  0.00    -0.170 F 
ATOM     22  F   UNL     1      -1.184  -7.349  21.119  1.00  0.00    -0.170 F 
ATOM     23  F   UNL     1      -3.266  -7.763  20.963  1.00  0.00    -0.170 F 
ENDBRANCH  17  20
ENDBRANCH  14  17
ENDBRANCH   5  10
ENDBRANCH   1   3
BRANCH   1  24
ATOM     24  C   UNL     1       0.368  -7.858  13.590  1.00  0.00     0.261 C 
BRANCH  24  25
ATOM     25  O   UNL     1      -0.215  -7.002  14.239  1.00  0.00    -0.365 OA
ATOM     26  H   UNL     1      -1.007  -6.687  13.734  1.00  0.00     0.214 HD
ENDBRANCH  24  25
BRANCH  24  27
ATOM     27  N   UNL     1       1.432  -7.527  12.772  1.00  0.00    -0.259 NA
ATOM     28  C   UNL     1       1.287  -7.605  11.309  1.00  0.00     0.104 C 
ATOM     29  C   UNL     1       2.769  -7.071  13.182  1.00  0.00     0.089 C 
ATOM     30  C   UNL     1       2.626  -7.069  10.780  1.00  0.00     0.025 C 
ATOM     31  C   UNL     1       3.598  -7.230  11.926  1.00  0.00     0.017 C 
BRANCH  28  32
ATOM     32  C   UNL     1       0.988  -9.016  10.799  1.00  0.00     0.197 C 
BRANCH  32  33
ATOM     33  O   UNL     1      -0.142  -9.305  10.395  1.00  0.00    -0.377 OA
ATOM     34  H   UNL     1      -0.773  -8.582  10.637  1.00  0.00     0.212 HD
ENDBRANCH  32  33
BRANCH  32  35
ATOM     35  N   UNL     1       1.969  -9.900  10.886  1.00  0.00    -0.305 NA
ATOM     36  H   UNL     1       1.612 -10.769  11.308  1.00  0.00     0.121 HD
ATOM     37  H   UNL     1       2.336 -10.101   9.945  1.00  0.00     0.121 HD
ENDBRANCH  32  35
ENDBRANCH  28  32
ENDBRANCH  24  27
ENDBRANCH   1  24
TORSDOF 10
ENDMDL
MODEL 14
REMARK VINA RESULT:    -7.625      1.630      2.524
REMARK INTER + INTRA:         -12.604
REMARK INTER:                 -11.443
REMARK INTRA:                  -1.161
REMARK UNBOUND:                -1.190
REMARK SMILES C[C@H]1N[C@@H](N[C@@H](O)N2CCC[C@H]2[C@@H](N)O)S[C@@H]1[C@H]1CCN[C@H](C(C)(C)C(F)(F)F)C1
REMARK SMILES IDX 5 1 4 3 2 4 17 5 3 6 16 7 1 8 18 10 19 11 30 12 20 13 22 14
REMARK SMILES IDX 21 15 23 17 24 18 25 19 26 20 27 21 28 22 29 23 6 24 7 25
REMARK SMILES IDX 8 27 12 28 9 29 11 30 10 31 13 32 15 33 14 35
REMARK H PARENT 5 2 3 9 21 16 7 26 15 34 14 36 14 37
ROOT
ATOM      1  N   UNL     1       0.704  -6.736  15.095  1.00  0.00    -0.255 NA
ATOM      2  H   UNL     1       1.670  -7.054  15.255  1.00  0.00     0.129 HD
ENDROOT
BRANCH   1   3
ATOM      3  C   UNL     1      -0.103  -7.784  15.496  1.00  0.00     0.185 C 
ATOM      4  C   UNL     1      -1.174  -9.708  15.286  1.00  0.00     0.066 C 
ATOM      5  C   UNL     1      -1.531  -9.432  16.602  1.00  0.00     0.069 C 
ATOM      6  N   UNL     1      -0.362  -8.772  14.678  1.00  0.00    -0.290 NA
ATOM      7  S   UNL     1      -0.828  -7.898  17.059  1.00  0.00    -0.122 SA
ATOM      8  C   UNL     1      -1.570 -10.920  14.506  1.00  0.00     0.025 C 
ATOM      9  H   UNL     1       0.522  -9.221  14.400  1.00  0.00     0.125 HD
BRANCH   5  10
ATOM     10  C   UNL     1      -2.355 -10.120  17.621  1.00  0.00     0.006 C 
ATOM     11  C   UNL     1      -3.299 -11.077  17.263  1.00  0.00     0.020 C 
ATOM     12  C   UNL     1      -2.172  -9.831  18.969  1.00  0.00     0.024 C 
ATOM     13  C   UNL     1      -4.048 -11.668  18.256  1.00  0.00     0.081 C 
ATOM     14  C   UNL     1      -2.970 -10.500  19.909  1.00  0.00     0.068 C 
ATOM     15  N   UNL     1      -3.908 -11.391  19.561  1.00  0.00    -0.313 NA
ATOM     16  H   UNL     1      -4.813 -11.034  19.898  1.00  0.00     0.122 HD
BRANCH  14  17
ATOM     17  C   UNL     1      -2.775 -10.278  21.428  1.00  0.00     0.076 C 
ATOM     18  C   UNL     1      -2.790  -8.781  21.778  1.00  0.00     0.022 C 
ATOM     19  C   UNL     1      -3.877 -11.005  22.217  1.00  0.00     0.022 C 
BRANCH  17  20
ATOM     20  C   UNL     1      -1.331 -10.874  21.901  1.00  0.00     0.395 C 
ATOM     21  F   UNL     1      -0.367  -9.975  21.707  1.00  0.00    -0.170 F 
ATOM     22  F   UNL     1      -1.302 -11.203  23.188  1.00  0.00    -0.170 F 
ATOM     23  F   UNL     1      -1.000 -11.969  21.226  1.00  0.00    -0.170 F 
ENDBRANCH  17  20
ENDBRANCH  14  17
ENDBRANCH   5  10
ENDBRANCH   1   3
BRANCH   1  24
ATOM     24  C   UNL     1       0.698  -6.177  13.808  1.00  0.00     0.261 C 
BRANCH  24  25
ATOM     25  O   UNL     1      -0.314  -6.152  13.123  1.00  0.00    -0.365 OA
ATOM     26  H   UNL     1      -0.165  -5.571  12.336  1.00  0.00     0.214 HD
ENDBRANCH  24  25
BRANCH  24  27
ATOM     27  N   UNL     1       1.886  -5.652  13.338  1.00  0.00    -0.259 NA
ATOM     28  C   UNL     1       2.120  -5.542  11.889  1.00  0.00     0.104 C 
ATOM     29  C   UNL     1       3.018  -5.146  14.130  1.00  0.00     0.089 C 
ATOM     30  C   UNL     1       3.477  -4.829  11.790  1.00  0.00     0.025 C 
ATOM     31  C   UNL     1       4.146  -5.064  13.125  1.00  0.00     0.017 C 
BRANCH  28  32
ATOM     32  C   UNL     1       2.121  -6.891  11.166  1.00  0.00     0.197 C 
BRANCH  32  33
ATOM     33  O   UNL     1       3.034  -7.698  11.357  1.00  0.00    -0.377 OA
ATOM     34  H   UNL     1       2.810  -8.272  12.132  1.00  0.00     0.212 HD
ENDBRANCH  32  33
BRANCH  32  35
ATOM     35  N   UNL     1       1.149  -7.097  10.292  1.00  0.00    -0.305 NA
ATOM     36  H   UNL     1       1.012  -6.249   9.724  1.00  0.00     0.121 HD
ATOM     37  H   UNL     1       1.400  -7.884   9.678  1.00  0.00     0.121 HD
ENDBRANCH  32  35
ENDBRANCH  28  32
ENDBRANCH  24  27
ENDBRANCH   1  24
TORSDOF 10
ENDMDL
MODEL 15
REMARK VINA RESULT:    -7.600      3.387      4.323
REMARK INTER + INTRA:         -12.567
REMARK INTER:                 -11.355
REMARK INTRA:                  -1.212
REMARK UNBOUND:                -1.190
REMARK SMILES C[C@H]1N[C@@H](N[C@@H](O)N2CCC[C@H]2[C@@H](N)O)S[C@@H]1[C@H]1CCN[C@H](C(C)(C)C(F)(F)F)C1
REMARK SMILES IDX 5 1 4 3 2 4 17 5 3 6 16 7 1 8 18 10 19 11 30 12 20 13 22 14
REMARK SMILES IDX 21 15 23 17 24 18 25 19 26 20 27 21 28 22 29 23 6 24 7 25
REMARK SMILES IDX 8 27 12 28 9 29 11 30 10 31 13 32 15 33 14 35
REMARK H PARENT 5 2 3 9 21 16 7 26 15 34 14 36 14 37
ROOT
ATOM      1  N   UNL     1       0.683  -8.083  12.178  1.00  0.00    -0.255 NA
ATOM      2  H   UNL     1       1.616  -7.721  12.421  1.00  0.00     0.129 HD
ENDROOT
BRANCH   1   3
ATOM      3  C   UNL     1       0.109  -8.466  13.376  1.00  0.00     0.185 C 
ATOM      4  C   UNL     1      -0.894  -9.838  14.792  1.00  0.00     0.066 C 
ATOM      5  C   UNL     1      -0.772  -8.742  15.640  1.00  0.00     0.069 C 
ATOM      6  N   UNL     1      -0.386  -9.668  13.520  1.00  0.00    -0.290 NA
ATOM      7  S   UNL     1      -0.010  -7.439  14.760  1.00  0.00    -0.122 SA
ATOM      8  C   UNL     1      -1.497 -11.158  15.147  1.00  0.00     0.025 C 
ATOM      9  H   UNL     1       0.357 -10.362  13.358  1.00  0.00     0.125 HD
BRANCH   5  10
ATOM     10  C   UNL     1      -1.156  -8.467  17.043  1.00  0.00     0.006 C 
ATOM     11  C   UNL     1      -1.708  -9.455  17.850  1.00  0.00     0.020 C 
ATOM     12  C   UNL     1      -0.938  -7.204  17.584  1.00  0.00     0.024 C 
ATOM     13  C   UNL     1      -2.062  -9.132  19.141  1.00  0.00     0.081 C 
ATOM     14  C   UNL     1      -1.313  -6.976  18.916  1.00  0.00     0.068 C 
ATOM     15  N   UNL     1      -1.885  -7.917  19.680  1.00  0.00    -0.313 NA
ATOM     16  H   UNL     1      -2.812  -7.566  19.959  1.00  0.00     0.122 HD
BRANCH  14  17
ATOM     17  C   UNL     1      -1.040  -5.617  19.604  1.00  0.00     0.076 C 
ATOM     18  C   UNL     1      -1.196  -5.723  21.129  1.00  0.00     0.022 C 
ATOM     19  C   UNL     1       0.378  -5.124  19.261  1.00  0.00     0.022 C 
BRANCH  17  20
ATOM     20  C   UNL     1      -2.108  -4.498  19.082  1.00  0.00     0.395 C 
ATOM     21  F   UNL     1      -3.279  -5.067  18.798  1.00  0.00    -0.170 F 
ATOM     22  F   UNL     1      -2.344  -3.549  19.980  1.00  0.00    -0.170 F 
ATOM     23  F   UNL     1      -1.685  -3.882  17.984  1.00  0.00    -0.170 F 
ENDBRANCH  17  20
ENDBRANCH  14  17
ENDBRANCH   5  10
ENDBRANCH   1   3
BRANCH   1  24
ATOM     24  C   UNL     1       0.882  -8.938  11.085  1.00  0.00     0.261 C 
BRANCH  24  25
ATOM     25  O   UNL     1      -0.052  -9.357  10.418  1.00  0.00    -0.365 OA
ATOM     26  H   UNL     1      -0.150  -8.803   9.603  1.00  0.00     0.214 HD
ENDBRANCH  24  25
BRANCH  24  27
ATOM     27  N   UNL     1       2.183  -9.294  10.786  1.00  0.00    -0.259 NA
ATOM     28  C   UNL     1       3.259  -8.292  10.875  1.00  0.00     0.104 C 
ATOM     29  C   UNL     1       2.680 -10.617  10.376  1.00  0.00     0.089 C 
ATOM     30  C   UNL     1       4.533  -9.096  10.574  1.00  0.00     0.025 C 
ATOM     31  C   UNL     1       4.061 -10.324   9.831  1.00  0.00     0.017 C 
BRANCH  28  32
ATOM     32  C   UNL     1       3.078  -7.114   9.915  1.00  0.00     0.197 C 
BRANCH  32  33
ATOM     33  O   UNL     1       3.435  -7.211   8.738  1.00  0.00    -0.377 OA
ATOM     34  H   UNL     1       2.723  -7.655   8.213  1.00  0.00     0.212 HD
ENDBRANCH  32  33
BRANCH  32  35
ATOM     35  N   UNL     1       2.598  -5.995  10.433  1.00  0.00    -0.305 NA
ATOM     36  H   UNL     1       2.066  -6.212  11.287  1.00  0.00     0.121 HD
ATOM     37  H   UNL     1       3.377  -5.363  10.666  1.00  0.00     0.121 HD
ENDBRANCH  32  35
ENDBRANCH  28  32
ENDBRANCH  24  27
ENDBRANCH   1  24
TORSDOF 10
ENDMDL
MODEL 16
REMARK VINA RESULT:    -7.537      4.017      8.749
REMARK INTER + INTRA:         -12.472
REMARK INTER:                 -11.247
REMARK INTRA:                  -1.225
REMARK UNBOUND:                -1.190
REMARK SMILES C[C@H]1N[C@@H](N[C@@H](O)N2CCC[C@H]2[C@@H](N)O)S[C@@H]1[C@H]1CCN[C@H](C(C)(C)C(F)(F)F)C1
REMARK SMILES IDX 5 1 4 3 2 4 17 5 3 6 16 7 1 8 18 10 19 11 30 12 20 13 22 14
REMARK SMILES IDX 21 15 23 17 24 18 25 19 26 20 27 21 28 22 29 23 6 24 7 25
REMARK SMILES IDX 8 27 12 28 9 29 11 30 10 31 13 32 15 33 14 35
REMARK H PARENT 5 2 3 9 21 16 7 26 15 34 14 36 14 37
ROOT
ATOM      1  N   UNL     1      -3.617 -11.547  20.252  1.00  0.00    -0.255 NA
ATOM      2  H   UNL     1      -3.047 -10.891  20.804  1.00  0.00     0.129 HD
ENDROOT
BRANCH   1   3
ATOM      3  C   UNL     1      -3.266 -11.325  18.934  1.00  0.00     0.185 C 
ATOM      4  C   UNL     1      -3.414 -11.539  16.737  1.00  0.00     0.066 C 
ATOM      5  C   UNL     1      -2.351 -10.642  16.772  1.00  0.00     0.069 C 
ATOM      6  N   UNL     1      -3.924 -11.909  17.965  1.00  0.00    -0.290 NA
ATOM      7  S   UNL     1      -1.972 -10.293  18.441  1.00  0.00    -0.122 SA
ATOM      8  C   UNL     1      -4.047 -12.101  15.505  1.00  0.00     0.025 C 
ATOM      9  H   UNL     1      -4.915 -11.635  18.016  1.00  0.00     0.125 HD
BRANCH   5  10
ATOM     10  C   UNL     1      -1.513  -9.985  15.744  1.00  0.00     0.006 C 
ATOM     11  C   UNL     1      -1.188 -10.628  14.554  1.00  0.00     0.020 C 
ATOM     12  C   UNL     1      -1.057  -8.687  15.950  1.00  0.00     0.024 C 
ATOM     13  C   UNL     1      -0.389  -9.971  13.646  1.00  0.00     0.081 C 
ATOM     14  C   UNL     1      -0.264  -8.094  14.956  1.00  0.00     0.068 C 
ATOM     15  N   UNL     1       0.083  -8.730  13.829  1.00  0.00    -0.313 NA
ATOM     16  H   UNL     1       1.112  -8.785  13.811  1.00  0.00     0.122 HD
BRANCH  14  17
ATOM     17  C   UNL     1       0.221  -6.630  15.087  1.00  0.00     0.076 C 
ATOM     18  C   UNL     1       0.430  -5.987  13.706  1.00  0.00     0.022 C 
ATOM     19  C   UNL     1      -0.796  -5.804  15.895  1.00  0.00     0.022 C 
BRANCH  17  20
ATOM     20  C   UNL     1       1.653  -6.581  15.869  1.00  0.00     0.395 C 
ATOM     21  F   UNL     1       1.699  -7.513  16.819  1.00  0.00    -0.170 F 
ATOM     22  F   UNL     1       2.690  -6.792  15.066  1.00  0.00    -0.170 F 
ATOM     23  F   UNL     1       1.861  -5.405  16.451  1.00  0.00    -0.170 F 
ENDBRANCH  17  20
ENDBRANCH  14  17
ENDBRANCH   5  10
ENDBRANCH   1   3
BRANCH   1  24
ATOM     24  C   UNL     1      -4.921 -11.431  20.756  1.00  0.00     0.261 C 
BRANCH  24  25
ATOM     25  O   UNL     1      -5.788 -10.812  20.157  1.00  0.00    -0.365 OA
ATOM     26  H   UNL     1      -6.663 -10.960  20.597  1.00  0.00     0.214 HD
ENDBRANCH  24  25
BRANCH  24  27
ATOM     27  N   UNL     1      -5.193 -12.047  21.962  1.00  0.00    -0.259 NA
ATOM     28  C   UNL     1      -5.197 -11.258  23.206  1.00  0.00     0.104 C 
ATOM     29  C   UNL     1      -5.508 -13.465  22.195  1.00  0.00     0.089 C 
ATOM     30  C   UNL     1      -5.636 -12.268  24.277  1.00  0.00     0.025 C 
ATOM     31  C   UNL     1      -5.334 -13.627  23.689  1.00  0.00     0.017 C 
BRANCH  28  32
ATOM     32  C   UNL     1      -3.844 -10.622  23.531  1.00  0.00     0.197 C 
BRANCH  32  33
ATOM     33  O   UNL     1      -2.799 -11.249  23.337  1.00  0.00    -0.377 OA
ATOM     34  H   UNL     1      -3.016 -12.185  23.100  1.00  0.00     0.212 HD
ENDBRANCH  32  33
BRANCH  32  35
ATOM     35  N   UNL     1      -3.871  -9.421  24.087  1.00  0.00    -0.305 NA
ATOM     36  H   UNL     1      -2.926  -9.172  24.411  1.00  0.00     0.121 HD
ATOM     37  H   UNL     1      -4.189  -8.729  23.394  1.00  0.00     0.121 HD
ENDBRANCH  32  35
ENDBRANCH  28  32
ENDBRANCH  24  27
ENDBRANCH   1  24
TORSDOF 10
ENDMDL
MODEL 17
REMARK VINA RESULT:    -7.523      2.742      4.227
REMARK INTER + INTRA:         -12.452
REMARK INTER:                 -11.537
REMARK INTRA:                  -0.915
REMARK UNBOUND:                -1.190
REMARK SMILES C[C@H]1N[C@@H](N[C@@H](O)N2CCC[C@H]2[C@@H](N)O)S[C@@H]1[C@H]1CCN[C@H](C(C)(C)C(F)(F)F)C1
REMARK SMILES IDX 5 1 4 3 2 4 17 5 3 6 16 7 1 8 18 10 19 11 30 12 20 13 22 14
REMARK SMILES IDX 21 15 23 17 24 18 25 19 26 20 27 21 28 22 29 23 6 24 7 25
REMARK SMILES IDX 8 27 12 28 9 29 11 30 10 31 13 32 15 33 14 35
REMARK H PARENT 5 2 3 9 21 16 7 26 15 34 14 36 14 37
ROOT
ATOM      1  N   UNL     1       1.908  -6.720  12.860  1.00  0.00    -0.255 NA
ATOM      2  H   UNL     1       2.854  -6.870  13.238  1.00  0.00     0.129 HD
ENDROOT
BRANCH   1   3
ATOM      3  C   UNL     1       1.048  -7.312  13.764  1.00  0.00     0.185 C 
ATOM      4  C   UNL     1      -0.390  -8.825  14.497  1.00  0.00     0.066 C 
ATOM      5  C   UNL     1      -0.330  -8.045  15.648  1.00  0.00     0.069 C 
ATOM      6  N   UNL     1       0.398  -8.403  13.446  1.00  0.00    -0.290 NA
ATOM      7  S   UNL     1       0.750  -6.702  15.353  1.00  0.00    -0.122 SA
ATOM      8  C   UNL     1      -1.203 -10.067  14.323  1.00  0.00     0.025 C 
ATOM      9  H   UNL     1       1.074  -9.143  13.212  1.00  0.00     0.125 HD
BRANCH   5  10
ATOM     10  C   UNL     1      -0.975  -8.104  16.978  1.00  0.00     0.006 C 
ATOM     11  C   UNL     1      -1.049  -6.984  17.798  1.00  0.00     0.020 C 
ATOM     12  C   UNL     1      -1.548  -9.295  17.416  1.00  0.00     0.024 C 
ATOM     13  C   UNL     1      -1.646  -7.109  19.034  1.00  0.00     0.081 C 
ATOM     14  C   UNL     1      -2.150  -9.318  18.682  1.00  0.00     0.068 C 
ATOM     15  N   UNL     1      -2.184  -8.249  19.490  1.00  0.00    -0.313 NA
ATOM     16  H   UNL     1      -1.685  -8.500  20.355  1.00  0.00     0.122 HD
BRANCH  14  17
ATOM     17  C   UNL     1      -2.866 -10.587  19.205  1.00  0.00     0.076 C 
ATOM     18  C   UNL     1      -1.903 -11.476  20.010  1.00  0.00     0.022 C 
ATOM     19  C   UNL     1      -4.067 -10.195  20.084  1.00  0.00     0.022 C 
BRANCH  17  20
ATOM     20  C   UNL     1      -3.418 -11.476  17.954  1.00  0.00     0.395 C 
ATOM     21  F   UNL     1      -3.823 -10.685  16.961  1.00  0.00    -0.170 F 
ATOM     22  F   UNL     1      -2.499 -12.292  17.451  1.00  0.00    -0.170 F 
ATOM     23  F   UNL     1      -4.448 -12.239  18.303  1.00  0.00    -0.170 F 
ENDBRANCH  17  20
ENDBRANCH  14  17
ENDBRANCH   5  10
ENDBRANCH   1   3
BRANCH   1  24
ATOM     24  C   UNL     1       1.985  -7.058  11.500  1.00  0.00     0.261 C 
BRANCH  24  25
ATOM     25  O   UNL     1       1.093  -6.774  10.716  1.00  0.00    -0.365 OA
ATOM     26  H   UNL     1       1.444  -6.156  10.026  1.00  0.00     0.214 HD
ENDBRANCH  24  25
BRANCH  24  27
ATOM     27  N   UNL     1       3.116  -7.730  11.077  1.00  0.00    -0.259 NA
ATOM     28  C   UNL     1       3.001  -8.807  10.079  1.00  0.00     0.104 C 
ATOM     29  C   UNL     1       4.506  -7.501  11.499  1.00  0.00     0.089 C 
ATOM     30  C   UNL     1       4.458  -9.211   9.809  1.00  0.00     0.025 C 
ATOM     31  C   UNL     1       5.232  -8.738  11.018  1.00  0.00     0.017 C 
BRANCH  28  32
ATOM     32  C   UNL     1       2.151  -9.988  10.550  1.00  0.00     0.197 C 
BRANCH  32  33
ATOM     33  O   UNL     1       2.668 -11.094  10.731  1.00  0.00    -0.377 OA
ATOM     34  H   UNL     1       3.444 -11.198  10.124  1.00  0.00     0.212 HD
ENDBRANCH  32  33
BRANCH  32  35
ATOM     35  N   UNL     1       0.851  -9.772  10.676  1.00  0.00    -0.305 NA
ATOM     36  H   UNL     1       0.441  -9.601   9.747  1.00  0.00     0.121 HD
ATOM     37  H   UNL     1       0.405 -10.598  11.102  1.00  0.00     0.121 HD
ENDBRANCH  32  35
ENDBRANCH  28  32
ENDBRANCH  24  27
ENDBRANCH   1  24
TORSDOF 10
ENDMDL
MODEL 18
REMARK VINA RESULT:    -7.305      4.129      6.643
REMARK INTER + INTRA:         -12.126
REMARK INTER:                 -10.694
REMARK INTRA:                  -1.432
REMARK UNBOUND:                -1.190
REMARK SMILES C[C@H]1N[C@@H](N[C@@H](O)N2CCC[C@H]2[C@@H](N)O)S[C@@H]1[C@H]1CCN[C@H](C(C)(C)C(F)(F)F)C1
REMARK SMILES IDX 5 1 4 3 2 4 17 5 3 6 16 7 1 8 18 10 19 11 30 12 20 13 22 14
REMARK SMILES IDX 21 15 23 17 24 18 25 19 26 20 27 21 28 22 29 23 6 24 7 25
REMARK SMILES IDX 8 27 12 28 9 29 11 30 10 31 13 32 15 33 14 35
REMARK H PARENT 5 2 3 9 21 16 7 26 15 34 14 36 14 37
ROOT
ATOM      1  N   UNL     1      -0.310  -3.834  17.354  1.00  0.00    -0.255 NA
ATOM      2  H   UNL     1      -0.675  -4.133  18.269  1.00  0.00     0.129 HD
ENDROOT
BRANCH   1   3
ATOM      3  C   UNL     1      -0.154  -4.995  16.620  1.00  0.00     0.185 C 
ATOM      4  C   UNL     1       0.813  -6.358  15.169  1.00  0.00     0.066 C 
ATOM      5  C   UNL     1      -0.227  -7.197  15.558  1.00  0.00     0.069 C 
ATOM      6  N   UNL     1       0.844  -5.121  15.783  1.00  0.00    -0.290 NA
ATOM      7  S   UNL     1      -1.217  -6.352  16.725  1.00  0.00    -0.122 SA
ATOM      8  C   UNL     1       1.884  -6.689  14.182  1.00  0.00     0.025 C 
ATOM      9  H   UNL     1       1.731  -5.021  16.296  1.00  0.00     0.125 HD
BRANCH   5  10
ATOM     10  C   UNL     1      -0.651  -8.565  15.187  1.00  0.00     0.006 C 
ATOM     11  C   UNL     1      -0.301  -9.125  13.963  1.00  0.00     0.020 C 
ATOM     12  C   UNL     1      -1.392  -9.327  16.085  1.00  0.00     0.024 C 
ATOM     13  C   UNL     1      -0.742 -10.396  13.669  1.00  0.00     0.081 C 
ATOM     14  C   UNL     1      -1.778 -10.619  15.702  1.00  0.00     0.068 C 
ATOM     15  N   UNL     1      -1.477 -11.142  14.506  1.00  0.00    -0.313 NA
ATOM     16  H   UNL     1      -2.365 -11.355  14.029  1.00  0.00     0.122 HD
BRANCH  14  17
ATOM     17  C   UNL     1      -2.546 -11.547  16.675  1.00  0.00     0.076 C 
ATOM     18  C   UNL     1      -1.714 -12.790  17.030  1.00  0.00     0.022 C 
ATOM     19  C   UNL     1      -2.911 -10.783  17.960  1.00  0.00     0.022 C 
BRANCH  17  20
ATOM     20  C   UNL     1      -3.928 -12.068  15.981  1.00  0.00     0.395 C 
ATOM     21  F   UNL     1      -3.713 -13.190  15.295  1.00  0.00    -0.170 F 
ATOM     22  F   UNL     1      -4.885 -12.330  16.864  1.00  0.00    -0.170 F 
ATOM     23  F   UNL     1      -4.429 -11.172  15.137  1.00  0.00    -0.170 F 
ENDBRANCH  17  20
ENDBRANCH  14  17
ENDBRANCH   5  10
ENDBRANCH   1   3
BRANCH   1  24
ATOM     24  C   UNL     1       0.724  -2.929  17.636  1.00  0.00     0.261 C 
BRANCH  24  25
ATOM     25  O   UNL     1       0.738  -1.802  17.164  1.00  0.00    -0.365 OA
ATOM     26  H   UNL     1       1.287  -1.211  17.738  1.00  0.00     0.214 HD
ENDBRANCH  24  25
BRANCH  24  27
ATOM     27  N   UNL     1       1.735  -3.361  18.474  1.00  0.00    -0.259 NA
ATOM     28  C   UNL     1       3.142  -3.192  18.075  1.00  0.00     0.104 C 
ATOM     29  C   UNL     1       1.596  -3.996  19.794  1.00  0.00     0.089 C 
ATOM     30  C   UNL     1       3.930  -3.692  19.297  1.00  0.00     0.025 C 
ATOM     31  C   UNL     1       2.968  -4.578  20.053  1.00  0.00     0.017 C 
BRANCH  28  32
ATOM     32  C   UNL     1       3.512  -3.952  16.800  1.00  0.00     0.197 C 
BRANCH  32  33
ATOM     33  O   UNL     1       3.957  -5.101  16.867  1.00  0.00    -0.377 OA
ATOM     34  H   UNL     1       3.205  -5.742  16.925  1.00  0.00     0.212 HD
ENDBRANCH  32  33
BRANCH  32  35
ATOM     35  N   UNL     1       3.398  -3.289  15.660  1.00  0.00    -0.305 NA
ATOM     36  H   UNL     1       2.898  -2.405  15.826  1.00  0.00     0.121 HD
ATOM     37  H   UNL     1       4.336  -3.087  15.285  1.00  0.00     0.121 HD
ENDBRANCH  32  35
ENDBRANCH  28  32
ENDBRANCH  24  27
ENDBRANCH   1  24
TORSDOF 10
ENDMDL
MODEL 19
REMARK VINA RESULT:    -7.300      2.748      3.878
REMARK INTER + INTRA:         -12.118
REMARK INTER:                 -11.229
REMARK INTRA:                  -0.889
REMARK UNBOUND:                -1.190
REMARK SMILES C[C@H]1N[C@@H](N[C@@H](O)N2CCC[C@H]2[C@@H](N)O)S[C@@H]1[C@H]1CCN[C@H](C(C)(C)C(F)(F)F)C1
REMARK SMILES IDX 5 1 4 3 2 4 17 5 3 6 16 7 1 8 18 10 19 11 30 12 20 13 22 14
REMARK SMILES IDX 21 15 23 17 24 18 25 19 26 20 27 21 28 22 29 23 6 24 7 25
REMARK SMILES IDX 8 27 12 28 9 29 11 30 10 31 13 32 15 33 14 35
REMARK H PARENT 5 2 3 9 21 16 7 26 15 34 14 36 14 37
ROOT
ATOM      1  N   UNL     1       0.460  -6.430  15.605  1.00  0.00    -0.255 NA
ATOM      2  H   UNL     1       0.385  -6.228  14.598  1.00  0.00     0.129 HD
ENDROOT
BRANCH   1   3
ATOM      3  C   UNL     1      -0.279  -7.579  15.810  1.00  0.00     0.185 C 
ATOM      4  C   UNL     1      -1.051  -9.599  15.342  1.00  0.00     0.066 C 
ATOM      5  C   UNL     1      -1.688  -9.429  16.567  1.00  0.00     0.069 C 
ATOM      6  N   UNL     1      -0.254  -8.549  14.932  1.00  0.00    -0.290 NA
ATOM      7  S   UNL     1      -1.276  -7.851  17.194  1.00  0.00    -0.122 SA
ATOM      8  C   UNL     1      -1.141 -10.808  14.468  1.00  0.00     0.025 C 
ATOM      9  H   UNL     1       0.714  -8.883  14.824  1.00  0.00     0.125 HD
BRANCH   5  10
ATOM     10  C   UNL     1      -2.607 -10.254  17.383  1.00  0.00     0.006 C 
ATOM     11  C   UNL     1      -3.377 -11.261  16.812  1.00  0.00     0.020 C 
ATOM     12  C   UNL     1      -2.689 -10.045  18.756  1.00  0.00     0.024 C 
ATOM     13  C   UNL     1      -4.228 -11.981  17.621  1.00  0.00     0.081 C 
ATOM     14  C   UNL     1      -3.570 -10.843  19.500  1.00  0.00     0.068 C 
ATOM     15  N   UNL     1      -4.343 -11.785  18.942  1.00  0.00    -0.313 NA
ATOM     16  H   UNL     1      -5.323 -11.530  19.131  1.00  0.00     0.122 HD
BRANCH  14  17
ATOM     17  C   UNL     1      -3.663 -10.712  21.040  1.00  0.00     0.076 C 
ATOM     18  C   UNL     1      -4.212  -9.335  21.449  1.00  0.00     0.022 C 
ATOM     19  C   UNL     1      -4.564 -11.820  21.613  1.00  0.00     0.022 C 
BRANCH  17  20
ATOM     20  C   UNL     1      -2.181 -10.864  21.707  1.00  0.00     0.395 C 
ATOM     21  F   UNL     1      -1.479 -11.805  21.077  1.00  0.00    -0.170 F 
ATOM     22  F   UNL     1      -1.470  -9.744  21.650  1.00  0.00    -0.170 F 
ATOM     23  F   UNL     1      -2.247 -11.204  22.990  1.00  0.00    -0.170 F 
ENDBRANCH  17  20
ENDBRANCH  14  17
ENDBRANCH   5  10
ENDBRANCH   1   3
BRANCH   1  24
ATOM     24  C   UNL     1       0.222  -5.208  16.253  1.00  0.00     0.261 C 
BRANCH  24  25
ATOM     25  O   UNL     1      -0.765  -4.532  16.006  1.00  0.00    -0.365 OA
ATOM     26  H   UNL     1      -0.767  -4.289  15.046  1.00  0.00     0.214 HD
ENDBRANCH  24  25
BRANCH  24  27
ATOM     27  N   UNL     1       1.151  -4.794  17.189  1.00  0.00    -0.259 NA
ATOM     28  C   UNL     1       2.416  -4.184  16.748  1.00  0.00     0.104 C 
ATOM     29  C   UNL     1       1.044  -4.872  18.654  1.00  0.00     0.089 C 
ATOM     30  C   UNL     1       3.103  -3.779  18.062  1.00  0.00     0.025 C 
ATOM     31  C   UNL     1       2.462  -4.639  19.126  1.00  0.00     0.017 C 
BRANCH  28  32
ATOM     32  C   UNL     1       3.286  -5.120  15.906  1.00  0.00     0.197 C 
BRANCH  32  33
ATOM     33  O   UNL     1       3.724  -4.747  14.814  1.00  0.00    -0.377 OA
ATOM     34  H   UNL     1       2.984  -4.705  14.159  1.00  0.00     0.212 HD
ENDBRANCH  32  33
BRANCH  32  35
ATOM     35  N   UNL     1       3.469  -6.343  16.376  1.00  0.00    -0.305 NA
ATOM     36  H   UNL     1       2.860  -6.492  17.192  1.00  0.00     0.121 HD
ATOM     37  H   UNL     1       3.237  -7.031  15.645  1.00  0.00     0.121 HD
ENDBRANCH  32  35
ENDBRANCH  28  32
ENDBRANCH  24  27
ENDBRANCH   1  24
TORSDOF 10
ENDMDL
MODEL 20
REMARK VINA RESULT:    -7.278      3.068      4.604
REMARK INTER + INTRA:         -12.085
REMARK INTER:                 -10.906
REMARK INTRA:                  -1.179
REMARK UNBOUND:                -1.190
REMARK SMILES C[C@H]1N[C@@H](N[C@@H](O)N2CCC[C@H]2[C@@H](N)O)S[C@@H]1[C@H]1CCN[C@H](C(C)(C)C(F)(F)F)C1
REMARK SMILES IDX 5 1 4 3 2 4 17 5 3 6 16 7 1 8 18 10 19 11 30 12 20 13 22 14
REMARK SMILES IDX 21 15 23 17 24 18 25 19 26 20 27 21 28 22 29 23 6 24 7 25
REMARK SMILES IDX 8 27 12 28 9 29 11 30 10 31 13 32 15 33 14 35
REMARK H PARENT 5 2 3 9 21 16 7 26 15 34 14 36 14 37
ROOT
ATOM      1  N   UNL     1      -0.455  -5.554  15.901  1.00  0.00    -0.255 NA
ATOM      2  H   UNL     1      -1.299  -4.971  15.995  1.00  0.00     0.129 HD
ENDROOT
BRANCH   1   3
ATOM      3  C   UNL     1      -0.871  -6.851  16.134  1.00  0.00     0.185 C 
ATOM      4  C   UNL     1      -0.913  -9.044  15.850  1.00  0.00     0.066 C 
ATOM      5  C   UNL     1      -1.849  -8.965  16.876  1.00  0.00     0.069 C 
ATOM      6  N   UNL     1      -0.365  -7.843  15.447  1.00  0.00    -0.290 NA
ATOM      7  S   UNL     1      -2.057  -7.286  17.312  1.00  0.00    -0.122 SA
ATOM      8  C   UNL     1      -0.448 -10.298  15.182  1.00  0.00     0.025 C 
ATOM      9  H   UNL     1       0.654  -7.870  15.593  1.00  0.00     0.125 HD
BRANCH   5  10
ATOM     10  C   UNL     1      -2.670  -9.953  17.610  1.00  0.00     0.006 C 
ATOM     11  C   UNL     1      -3.294 -11.008  16.953  1.00  0.00     0.020 C 
ATOM     12  C   UNL     1      -2.806  -9.850  18.991  1.00  0.00     0.024 C 
ATOM     13  C   UNL     1      -4.061 -11.884  17.690  1.00  0.00     0.081 C 
ATOM     14  C   UNL     1      -3.593 -10.802  19.656  1.00  0.00     0.068 C 
ATOM     15  N   UNL     1      -4.228 -11.794  19.017  1.00  0.00    -0.313 NA
ATOM     16  H   UNL     1      -5.236 -11.679  19.193  1.00  0.00     0.122 HD
BRANCH  14  17
ATOM     17  C   UNL     1      -3.733 -10.789  21.198  1.00  0.00     0.076 C 
ATOM     18  C   UNL     1      -4.387  -9.486  21.686  1.00  0.00     0.022 C 
ATOM     19  C   UNL     1      -4.568 -11.994  21.665  1.00  0.00     0.022 C 
BRANCH  17  20
ATOM     20  C   UNL     1      -2.262 -10.886  21.897  1.00  0.00     0.395 C 
ATOM     21  F   UNL     1      -1.488 -11.749  21.239  1.00  0.00    -0.170 F 
ATOM     22  F   UNL     1      -1.618  -9.725  21.916  1.00  0.00    -0.170 F 
ATOM     23  F   UNL     1      -2.337 -11.296  23.158  1.00  0.00    -0.170 F 
ENDBRANCH  17  20
ENDBRANCH  14  17
ENDBRANCH   5  10
ENDBRANCH   1   3
BRANCH   1  24
ATOM     24  C   UNL     1       0.542  -4.896  16.637  1.00  0.00     0.261 C 
BRANCH  24  25
ATOM     25  O   UNL     1       1.659  -4.705  16.178  1.00  0.00    -0.365 OA
ATOM     26  H   UNL     1       1.698  -3.804  15.770  1.00  0.00     0.214 HD
ENDBRANCH  24  25
BRANCH  24  27
ATOM     27  N   UNL     1       0.215  -4.469  17.909  1.00  0.00    -0.259 NA
ATOM     28  C   UNL     1      -0.952  -3.595  18.114  1.00  0.00     0.104 C 
ATOM     29  C   UNL     1       0.903  -4.792  19.169  1.00  0.00     0.089 C 
ATOM     30  C   UNL     1      -1.029  -3.441  19.641  1.00  0.00     0.025 C 
ATOM     31  C   UNL     1       0.356  -3.773  20.144  1.00  0.00     0.017 C 
BRANCH  28  32
ATOM     32  C   UNL     1      -0.837  -2.245  17.402  1.00  0.00     0.197 C 
BRANCH  32  33
ATOM     33  O   UNL     1      -1.853  -1.646  17.038  1.00  0.00    -0.377 OA
ATOM     34  H   UNL     1      -2.330  -1.296  17.831  1.00  0.00     0.212 HD
ENDBRANCH  32  33
BRANCH  32  35
ATOM     35  N   UNL     1       0.386  -1.813  17.143  1.00  0.00    -0.305 NA
ATOM     36  H   UNL     1       0.929  -2.565  16.697  1.00  0.00     0.121 HD
ATOM     37  H   UNL     1       0.337  -1.002  16.509  1.00  0.00     0.121 HD
ENDBRANCH  32  35
ENDBRANCH  28  32
ENDBRANCH  24  27
ENDBRANCH   1  24
TORSDOF 10
ENDMDL
