REMARK SMILES CC1(C)CCC(C)(C)c2cc(NC(=O)c3ccc(C(=O)O)cc3)ccc21
REMARK SMILES IDX 15 1 16 2 23 3 17 4 22 5 18 6 13 7 14 8 12 9 11 11 10 12
REMARK SMILES IDX 24 13 9 14 25 15 6 16 26 17 5 18 2 19 4 20 7 21 8 22 1 23
REMARK SMILES IDX 3 24 19 25 20 26 21 27
REMARK H PARENT 12 10 21 28
ROOT
ATOM      1  C   UNL     1       3.002  -0.676   0.038  1.00  0.00     0.040 A 
ATOM      2  C   UNL     1       3.990  -1.510  -0.442  1.00  0.00     0.015 A 
ATOM      3  C   UNL     1       3.270   0.599   0.492  1.00  0.00     0.015 A 
ATOM      4  C   UNL     1       5.306  -1.049  -0.469  1.00  0.00     0.016 A 
ATOM      5  C   UNL     1       4.586   1.060   0.464  1.00  0.00     0.016 A 
ATOM      6  C   UNL     1       5.604   0.236  -0.016  1.00  0.00     0.059 A 
ENDROOT
BRANCH   1   7
ATOM      7  C   UNL     1       1.600  -1.168   0.067  1.00  0.00     0.255 C 
ATOM      8  O   UNL     1       1.421  -2.376   0.180  1.00  0.00    -0.269 OA
ATOM      9  N   UNL     1       0.614  -0.176  -0.015  1.00  0.00    -0.322 N 
ATOM     10  H   UNL     1       0.910   0.786  -0.151  1.00  0.00     0.170 HD
BRANCH   9  11
ATOM     11  C   UNL     1      -0.772  -0.338   0.013  1.00  0.00     0.041 A 
ATOM     12  C   UNL     1      -1.608   0.773  -0.078  1.00  0.00     0.030 A 
ATOM     13  C   UNL     1      -1.322  -1.603   0.135  1.00  0.00     0.026 A 
ATOM     14  C   UNL     1      -3.016   0.649  -0.046  1.00  0.00    -0.037 A 
ATOM     15  C   UNL     1      -2.707  -1.755   0.149  1.00  0.00     0.007 A 
ATOM     16  C   UNL     1      -3.878   1.915  -0.145  1.00  0.00    -0.010 C 
ATOM     17  C   UNL     1      -3.579  -0.648   0.038  1.00  0.00    -0.038 A 
ATOM     18  C   UNL     1      -5.347   1.634   0.240  1.00  0.00     0.012 C 
ATOM     19  C   UNL     1      -5.094  -0.887   0.055  1.00  0.00    -0.010 C 
ATOM     20  C   UNL     1      -5.873   0.364  -0.407  1.00  0.00     0.012 C 
ATOM     21  C   UNL     1      -3.807   2.450  -1.593  1.00  0.00     0.016 C 
ATOM     22  C   UNL     1      -3.381   3.027   0.809  1.00  0.00     0.016 C 
ATOM     23  C   UNL     1      -5.519  -1.269   1.490  1.00  0.00     0.016 C 
ATOM     24  C   UNL     1      -5.508  -2.035  -0.896  1.00  0.00     0.016 C 
ENDBRANCH   9  11
ENDBRANCH   1   7
BRANCH   6  25
ATOM     25  C   UNL     1       6.976   0.718  -0.045  1.00  0.00     0.335 C 
ATOM     26  O   UNL     1       7.952   0.076  -0.449  1.00  0.00    -0.246 OA
BRANCH  25  27
ATOM     27  O   UNL     1       7.092   1.988   0.430  1.00  0.00    -0.478 OA
ATOM     28  H   UNL     1       8.021   2.304   0.405  1.00  0.00     0.297 HD
ENDBRANCH  25  27
ENDBRANCH   6  25
TORSDOF 4
