REMARK SMILES C[C@@H](C[C@H]1CC[C@@H](C(O)O)CC1)[C@H]1CC[C@H]2[C@@H](C1)C(C)(C)CCC2(C)C
REMARK SMILES IDX 4 1 5 2 6 3 7 4 11 5 12 6 3 7 2 8 1 9 13 10 14 11 18 12
REMARK SMILES IDX 15 13 17 14 16 15 19 16 24 17 22 18 23 19 20 20 21 21 25 22
REMARK SMILES IDX 26 23 8 24 9 25 10 27
REMARK H PARENT 9 26 10 28
ROOT
ATOM      1  C   UNL     1      40.898  23.466 101.740  1.00  0.00    -0.011 C 
ATOM      2  C   UNL     1      40.481  24.789 101.378  1.00  0.00     0.004 C 
ATOM      3  C   UNL     1      39.357  25.400 101.978  1.00  0.00     0.009 C 
ATOM      4  C   UNL     1      38.592  24.708 102.964  1.00  0.00     0.045 C 
ATOM      5  C   UNL     1      39.006  23.398 103.335  1.00  0.00     0.009 C 
ATOM      6  C   UNL     1      40.136  22.791 102.730  1.00  0.00     0.004 C 
ENDROOT
BRANCH   1   7
ATOM      7  C   UNL     1      42.098  22.905 101.041  1.00  0.00     0.007 C 
BRANCH   7   8
ATOM      8  C   UNL     1      42.558  21.617 100.835  1.00  0.00    -0.011 C 
ATOM      9  C   UNL     1      41.900  20.310 101.310  1.00  0.00     0.008 C 
BRANCH   8  10
ATOM     10  C   UNL     1      43.837  21.464 100.048  1.00  0.00    -0.008 C 
ATOM     11  C   UNL     1      44.881  22.415 100.150  1.00  0.00     0.004 C 
ATOM     12  C   UNL     1      44.031  20.357  99.175  1.00  0.00     0.008 C 
ATOM     13  C   UNL     1      46.059  22.266  99.406  1.00  0.00     0.005 C 
ATOM     14  C   UNL     1      45.218  20.171  98.402  1.00  0.00    -0.002 C 
ATOM     15  C   UNL     1      46.272  21.157  98.523  1.00  0.00    -0.002 C 
ATOM     16  C   UNL     1      45.351  18.928  97.477  1.00  0.00    -0.032 C 
ATOM     17  C   UNL     1      47.610  21.059  97.734  1.00  0.00    -0.032 C 
ATOM     18  C   UNL     1      46.835  18.634  97.103  1.00  0.00     0.007 C 
ATOM     19  C   UNL     1      47.634  19.893  96.689  1.00  0.00     0.007 C 
ATOM     20  C   UNL     1      44.791  17.685  98.207  1.00  0.00     0.011 C 
ATOM     21  C   UNL     1      44.555  19.097  96.159  1.00  0.00     0.011 C 
ATOM     22  C   UNL     1      47.883  22.381  96.976  1.00  0.00     0.011 C 
ATOM     23  C   UNL     1      48.772  20.813  98.717  1.00  0.00     0.011 C 
ENDBRANCH   8  10
ENDBRANCH   7   8
ENDBRANCH   1   7
BRANCH   4  24
ATOM     24  C   UNL     1      37.389  25.338 103.595  1.00  0.00     0.246 C 
BRANCH  24  25
ATOM     25  O   UNL     1      37.046  26.475 103.251  1.00  0.00    -0.368 OA
ATOM     26  H   UNL     1      36.880  27.027 104.056  1.00  0.00     0.213 HD
ENDBRANCH  24  25
BRANCH  24  27
ATOM     27  O   UNL     1      36.750  24.707 104.446  1.00  0.00    -0.368 OA
ATOM     28  H   UNL     1      37.036  24.990 105.350  1.00  0.00     0.213 HD
ENDBRANCH  24  27
ENDBRANCH   4  24
TORSDOF 6
