MODEL 1
REMARK VINA RESULT:    -9.182      0.000      0.000
REMARK INTER + INTRA:         -15.224
REMARK INTER:                 -13.476
REMARK INTRA:                  -1.748
REMARK UNBOUND:                -1.748
REMARK SMILES CN1CCN(CCOc2cc3c(c(OC4CCOCC4)c2)C(Nc2c(Cl)ccc4c2OCO4)N=CN3)CC1
REMARK SMILES IDX 8 1 7 2 6 3 5 4 2 5 3 6 38 7 4 8 37 9 1 10 9 11 21 12 10 13
REMARK SMILES IDX 13 14 11 15 12 16 36 17 22 18 35 19 34 20 14 22 15 23 16 24
REMARK SMILES IDX 20 25 17 26 19 27 18 28 23 29 24 31 30 32 25 33 31 34 29 35
REMARK SMILES IDX 27 36 32 37 33 38 28 39 26 40
REMARK H PARENT 36 21 23 30
ROOT
ATOM      1  O   UNL     1      -9.297  16.243  -6.342  1.00  0.00    -0.492 OA
ENDROOT
BRANCH   1   2
ATOM      2  C   UNL     1      -7.910  16.105  -6.536  1.00  0.00     0.245 C 
BRANCH   2   3
ATOM      3  C   UNL     1      -7.181  15.649  -5.261  1.00  0.00     0.126 C 
BRANCH   3   4
ATOM      4  N   UNL     1      -8.021  15.361  -4.104  1.00  0.00    -0.297 NA
ATOM      5  N   UNL     1      -8.426  14.027  -1.535  1.00  0.00    -0.304 NA
ATOM      6  C   UNL     1      -9.024  13.522  -2.759  1.00  0.00     0.099 C 
ATOM      7  C   UNL     1      -8.256  15.465  -1.635  1.00  0.00     0.099 C 
ATOM      8  C   UNL     1      -8.205  13.917  -3.997  1.00  0.00     0.100 C 
ATOM      9  C   UNL     1      -7.412  15.834  -2.870  1.00  0.00     0.100 C 
ATOM     10  C   UNL     1      -9.258  13.686  -0.394  1.00  0.00     0.105 C 
ENDBRANCH   3   4
ENDBRANCH   2   3
ENDBRANCH   1   2
BRANCH   1  11
ATOM     11  C   UNL     1     -10.083  15.992  -7.440  1.00  0.00     0.125 A 
ATOM     12  C   UNL     1      -9.795  15.004  -8.308  1.00  0.00     0.093 A 
ATOM     13  C   UNL     1     -11.187  16.696  -7.715  1.00  0.00     0.073 A 
ATOM     14  C   UNL     1     -10.528  14.689  -9.400  1.00  0.00     0.132 A 
ATOM     15  C   UNL     1     -11.942  16.426  -8.789  1.00  0.00     0.054 A 
ATOM     16  C   UNL     1     -11.644  15.424  -9.663  1.00  0.00     0.062 A 
ATOM     17  N   UNL     1     -12.956  17.173  -8.928  1.00  0.00    -0.346 N 
ATOM     18  C   UNL     1     -12.496  15.261 -10.716  1.00  0.00     0.236 C 
ATOM     19  C   UNL     1     -13.686  16.946  -9.927  1.00  0.00     0.193 C 
ATOM     20  N   UNL     1     -13.498  16.048 -10.794  1.00  0.00    -0.246 NA
ATOM     21  H   UNL     1     -13.162  17.893  -8.287  1.00  0.00     0.167 HD
BRANCH  14  22
ATOM     22  O   UNL     1     -10.122  13.660 -10.230  1.00  0.00    -0.490 OA
BRANCH  22  23
ATOM     23  C   UNL     1     -10.031  12.323  -9.802  1.00  0.00     0.178 C 
ATOM     24  C   UNL     1     -11.170  11.902  -8.873  1.00  0.00     0.073 C 
ATOM     25  C   UNL     1     -10.079  11.473 -11.082  1.00  0.00     0.073 C 
ATOM     26  C   UNL     1     -11.233  10.384  -8.733  1.00  0.00     0.164 C 
ATOM     27  C   UNL     1     -10.211   9.988 -10.761  1.00  0.00     0.164 C 
ATOM     28  O   UNL     1     -11.363   9.770  -9.992  1.00  0.00    -0.381 OA
ENDBRANCH  22  23
ENDBRANCH  14  22
BRANCH  18  29
ATOM     29  N   UNL     1     -12.544  14.445 -11.704  1.00  0.00    -0.355 N 
ATOM     30  H   UNL     1     -11.632  13.933 -11.840  1.00  0.00     0.163 HD
BRANCH  29  31
ATOM     31  C   UNL     1     -13.395  14.070 -12.583  1.00  0.00     0.102 A 
ATOM     32  C   UNL     1     -13.639  14.727 -13.740  1.00  0.00     0.190 A 
ATOM     33  C   UNL     1     -14.128  12.938 -12.382  1.00  0.00     0.068 A 
ATOM     34  O   UNL     1     -13.108  15.762 -14.148  1.00  0.00    -0.451 OA
ATOM     35  C   UNL     1     -14.548  14.307 -14.630  1.00  0.00     0.168 A 
ATOM     36  C   UNL     1     -15.041  12.525 -13.282  1.00  0.00     0.027 A 
ATOM     37  C   UNL     1     -13.626  16.061 -15.443  1.00  0.00     0.468 C 
ATOM     38  O   UNL     1     -14.611  15.048 -15.610  1.00  0.00    -0.454 OA
ATOM     39  C   UNL     1     -15.263  13.200 -14.418  1.00  0.00     0.052 A 
ATOM     40  Cl  UNL     1     -13.992  11.930 -10.969  1.00  0.00    -0.082 Cl
ENDBRANCH  29  31
ENDBRANCH  18  29
ENDBRANCH   1  11
TORSDOF 8
ENDMDL
MODEL 2
REMARK VINA RESULT:    -9.080      1.565      2.032
REMARK INTER + INTRA:         -15.075
REMARK INTER:                 -13.123
REMARK INTRA:                  -1.953
REMARK UNBOUND:                -1.748
REMARK SMILES CN1CCN(CCOc2cc3c(c(OC4CCOCC4)c2)C(Nc2c(Cl)ccc4c2OCO4)N=CN3)CC1
REMARK SMILES IDX 8 1 7 2 6 3 5 4 2 5 3 6 38 7 4 8 37 9 1 10 9 11 21 12 10 13
REMARK SMILES IDX 13 14 11 15 12 16 36 17 22 18 35 19 34 20 14 22 15 23 16 24
REMARK SMILES IDX 20 25 17 26 19 27 18 28 23 29 24 31 30 32 25 33 31 34 29 35
REMARK SMILES IDX 27 36 32 37 33 38 28 39 26 40
REMARK H PARENT 36 21 23 30
ROOT
ATOM      1  O   UNL     1      -9.228  16.237  -6.215  1.00  0.00    -0.492 OA
ENDROOT
BRANCH   1   2
ATOM      2  C   UNL     1      -7.855  15.956  -6.339  1.00  0.00     0.245 C 
BRANCH   2   3
ATOM      3  C   UNL     1      -7.350  14.996  -5.248  1.00  0.00     0.126 C 
BRANCH   3   4
ATOM      4  N   UNL     1      -8.143  14.934  -4.025  1.00  0.00    -0.297 NA
ATOM      5  N   UNL     1      -8.593  13.848  -1.349  1.00  0.00    -0.304 NA
ATOM      6  C   UNL     1      -9.357  13.390  -2.496  1.00  0.00     0.099 C 
ATOM      7  C   UNL     1      -8.177  15.223  -1.560  1.00  0.00     0.099 C 
ATOM      8  C   UNL     1      -8.572  13.556  -3.806  1.00  0.00     0.100 C 
ATOM      9  C   UNL     1      -7.372  15.360  -2.866  1.00  0.00     0.100 C 
ATOM     10  C   UNL     1      -9.388  13.732  -0.139  1.00  0.00     0.105 C 
ENDBRANCH   3   4
ENDBRANCH   2   3
ENDBRANCH   1   2
BRANCH   1  11
ATOM     11  C   UNL     1      -9.993  15.986  -7.328  1.00  0.00     0.125 A 
ATOM     12  C   UNL     1      -9.668  15.023  -8.210  1.00  0.00     0.093 A 
ATOM     13  C   UNL     1     -11.112  16.667  -7.603  1.00  0.00     0.073 A 
ATOM     14  C   UNL     1     -10.379  14.710  -9.318  1.00  0.00     0.132 A 
ATOM     15  C   UNL     1     -11.846  16.398  -8.692  1.00  0.00     0.054 A 
ATOM     16  C   UNL     1     -11.511  15.421  -9.581  1.00  0.00     0.062 A 
ATOM     17  N   UNL     1     -12.878  17.121  -8.830  1.00  0.00    -0.346 N 
ATOM     18  C   UNL     1     -12.344  15.257 -10.649  1.00  0.00     0.236 C 
ATOM     19  C   UNL     1     -13.588  16.894  -9.843  1.00  0.00     0.193 C 
ATOM     20  N   UNL     1     -13.366  16.019 -10.724  1.00  0.00    -0.246 NA
ATOM     21  H   UNL     1     -13.110  17.823  -8.178  1.00  0.00     0.167 HD
BRANCH  14  22
ATOM     22  O   UNL     1      -9.936  13.709 -10.162  1.00  0.00    -0.490 OA
BRANCH  22  23
ATOM     23  C   UNL     1      -9.816  12.367  -9.758  1.00  0.00     0.178 C 
ATOM     24  C   UNL     1     -10.930  11.912  -8.815  1.00  0.00     0.073 C 
ATOM     25  C   UNL     1      -9.877  11.538 -11.052  1.00  0.00     0.073 C 
ATOM     26  C   UNL     1     -10.968  10.392  -8.700  1.00  0.00     0.164 C 
ATOM     27  C   UNL     1      -9.980  10.046 -10.755  1.00  0.00     0.164 C 
ATOM     28  O   UNL     1     -11.113   9.797  -9.967  1.00  0.00    -0.381 OA
ENDBRANCH  22  23
ENDBRANCH  14  22
BRANCH  18  29
ATOM     29  N   UNL     1     -12.359  14.459 -11.652  1.00  0.00    -0.355 N 
ATOM     30  H   UNL     1     -11.396  14.310 -12.053  1.00  0.00     0.163 HD
BRANCH  29  31
ATOM     31  C   UNL     1     -13.221  13.783 -12.314  1.00  0.00     0.102 A 
ATOM     32  C   UNL     1     -13.750  12.608 -11.905  1.00  0.00     0.190 A 
ATOM     33  C   UNL     1     -13.664  14.241 -13.519  1.00  0.00     0.068 A 
ATOM     34  O   UNL     1     -13.514  11.997 -10.860  1.00  0.00    -0.451 OA
ATOM     35  C   UNL     1     -14.642  11.925 -12.633  1.00  0.00     0.168 A 
ATOM     36  C   UNL     1     -14.561  13.546 -14.247  1.00  0.00     0.027 A 
ATOM     37  C   UNL     1     -14.343  10.836 -10.814  1.00  0.00     0.468 C 
ATOM     38  O   UNL     1     -14.993  10.885 -12.078  1.00  0.00    -0.454 OA
ATOM     39  C   UNL     1     -15.064  12.382 -13.815  1.00  0.00     0.052 A 
ATOM     40  Cl  UNL     1     -13.126  15.725 -14.254  1.00  0.00    -0.082 Cl
ENDBRANCH  29  31
ENDBRANCH  18  29
ENDBRANCH   1  11
TORSDOF 8
ENDMDL
MODEL 3
REMARK VINA RESULT:    -8.936      1.769      2.593
REMARK INTER + INTRA:         -14.864
REMARK INTER:                 -12.726
REMARK INTRA:                  -2.138
REMARK UNBOUND:                -1.748
REMARK SMILES CN1CCN(CCOc2cc3c(c(OC4CCOCC4)c2)C(Nc2c(Cl)ccc4c2OCO4)N=CN3)CC1
REMARK SMILES IDX 8 1 7 2 6 3 5 4 2 5 3 6 38 7 4 8 37 9 1 10 9 11 21 12 10 13
REMARK SMILES IDX 13 14 11 15 12 16 36 17 22 18 35 19 34 20 14 22 15 23 16 24
REMARK SMILES IDX 20 25 17 26 19 27 18 28 23 29 24 31 30 32 25 33 31 34 29 35
REMARK SMILES IDX 27 36 32 37 33 38 28 39 26 40
REMARK H PARENT 36 21 23 30
ROOT
ATOM      1  O   UNL     1      -9.541  15.950  -6.607  1.00  0.00    -0.492 OA
ENDROOT
BRANCH   1   2
ATOM      2  C   UNL     1      -8.373  15.167  -6.535  1.00  0.00     0.245 C 
BRANCH   2   3
ATOM      3  C   UNL     1      -8.394  14.189  -5.348  1.00  0.00     0.126 C 
BRANCH   3   4
ATOM      4  N   UNL     1      -8.054  12.803  -5.647  1.00  0.00    -0.297 NA
ATOM      5  N   UNL     1      -7.567  10.675  -7.591  1.00  0.00    -0.304 NA
ATOM      6  C   UNL     1      -8.816  10.765  -6.856  1.00  0.00     0.099 C 
ATOM      7  C   UNL     1      -6.495  11.252  -6.801  1.00  0.00     0.099 C 
ATOM      8  C   UNL     1      -9.128  12.209  -6.437  1.00  0.00     0.100 C 
ATOM      9  C   UNL     1      -6.820  12.708  -6.414  1.00  0.00     0.100 C 
ATOM     10  C   UNL     1      -7.275   9.289  -7.917  1.00  0.00     0.105 C 
ENDBRANCH   3   4
ENDBRANCH   2   3
ENDBRANCH   1   2
BRANCH   1  11
ATOM     11  C   UNL     1     -10.321  15.760  -7.721  1.00  0.00     0.125 A 
ATOM     12  C   UNL     1     -10.065  14.781  -8.608  1.00  0.00     0.093 A 
ATOM     13  C   UNL     1     -11.388  16.520  -7.994  1.00  0.00     0.073 A 
ATOM     14  C   UNL     1     -10.795  14.524  -9.718  1.00  0.00     0.132 A 
ATOM     15  C   UNL     1     -12.139  16.309  -9.085  1.00  0.00     0.054 A 
ATOM     16  C   UNL     1     -11.873  15.315  -9.978  1.00  0.00     0.062 A 
ATOM     17  N   UNL     1     -13.116  17.104  -9.219  1.00  0.00    -0.346 N 
ATOM     18  C   UNL     1     -12.716  15.215 -11.046  1.00  0.00     0.236 C 
ATOM     19  C   UNL     1     -13.841  16.933 -10.233  1.00  0.00     0.193 C 
ATOM     20  N   UNL     1     -13.680  16.048 -11.118  1.00  0.00    -0.246 NA
ATOM     21  H   UNL     1     -13.299  17.817  -8.564  1.00  0.00     0.167 HD
BRANCH  14  22
ATOM     22  O   UNL     1     -10.423  13.498 -10.566  1.00  0.00    -0.490 OA
BRANCH  22  23
ATOM     23  C   UNL     1     -10.118  12.202 -10.111  1.00  0.00     0.178 C 
ATOM     24  C   UNL     1     -11.347  11.401  -9.682  1.00  0.00     0.073 C 
ATOM     25  C   UNL     1      -9.439  11.496 -11.296  1.00  0.00     0.073 C 
ATOM     26  C   UNL     1     -11.019   9.918  -9.549  1.00  0.00     0.164 C 
ATOM     27  C   UNL     1      -9.248  10.008 -11.022  1.00  0.00     0.164 C 
ATOM     28  O   UNL     1     -10.487   9.412 -10.749  1.00  0.00    -0.381 OA
ENDBRANCH  22  23
ENDBRANCH  14  22
BRANCH  18  29
ATOM     29  N   UNL     1     -12.786  14.425 -12.053  1.00  0.00    -0.355 N 
ATOM     30  H   UNL     1     -11.884  13.902 -12.211  1.00  0.00     0.163 HD
BRANCH  29  31
ATOM     31  C   UNL     1     -13.650  14.086 -12.935  1.00  0.00     0.102 A 
ATOM     32  C   UNL     1     -13.870  14.757 -14.089  1.00  0.00     0.190 A 
ATOM     33  C   UNL     1     -14.426  12.982 -12.738  1.00  0.00     0.068 A 
ATOM     34  O   UNL     1     -13.299  15.773 -14.492  1.00  0.00    -0.451 OA
ATOM     35  C   UNL     1     -14.793  14.376 -14.981  1.00  0.00     0.168 A 
ATOM     36  C   UNL     1     -15.354  12.608 -13.640  1.00  0.00     0.027 A 
ATOM     37  C   UNL     1     -13.805  16.097 -15.786  1.00  0.00     0.468 C 
ATOM     38  O   UNL     1     -14.828  15.123 -15.957  1.00  0.00    -0.454 OA
ATOM     39  C   UNL     1     -15.551  13.296 -14.773  1.00  0.00     0.052 A 
ATOM     40  Cl  UNL     1     -14.329  11.964 -11.329  1.00  0.00    -0.082 Cl
ENDBRANCH  29  31
ENDBRANCH  18  29
ENDBRANCH   1  11
TORSDOF 8
ENDMDL
MODEL 4
REMARK VINA RESULT:    -8.882      1.710      2.468
REMARK INTER + INTRA:         -14.784
REMARK INTER:                 -12.889
REMARK INTRA:                  -1.895
REMARK UNBOUND:                -1.748
REMARK SMILES CN1CCN(CCOc2cc3c(c(OC4CCOCC4)c2)C(Nc2c(Cl)ccc4c2OCO4)N=CN3)CC1
REMARK SMILES IDX 8 1 7 2 6 3 5 4 2 5 3 6 38 7 4 8 37 9 1 10 9 11 21 12 10 13
REMARK SMILES IDX 13 14 11 15 12 16 36 17 22 18 35 19 34 20 14 22 15 23 16 24
REMARK SMILES IDX 20 25 17 26 19 27 18 28 23 29 24 31 30 32 25 33 31 34 29 35
REMARK SMILES IDX 27 36 32 37 33 38 28 39 26 40
REMARK H PARENT 36 21 23 30
ROOT
ATOM      1  O   UNL     1     -10.151  12.880  -6.449  1.00  0.00    -0.492 OA
ENDROOT
BRANCH   1   2
ATOM      2  C   UNL     1      -8.834  12.388  -6.517  1.00  0.00     0.245 C 
BRANCH   2   3
ATOM      3  C   UNL     1      -7.813  13.358  -5.897  1.00  0.00     0.126 C 
BRANCH   3   4
ATOM      4  N   UNL     1      -8.289  14.709  -5.623  1.00  0.00    -0.297 NA
ATOM      5  N   UNL     1      -7.819  17.398  -4.578  1.00  0.00    -0.304 NA
ATOM      6  C   UNL     1      -8.577  16.411  -3.829  1.00  0.00     0.099 C 
ATOM      7  C   UNL     1      -7.957  17.141  -6.000  1.00  0.00     0.099 C 
ATOM      8  C   UNL     1      -8.161  14.978  -4.194  1.00  0.00     0.100 C 
ATOM      9  C   UNL     1      -7.512  15.707  -6.344  1.00  0.00     0.100 C 
ATOM     10  C   UNL     1      -8.281  18.737  -4.252  1.00  0.00     0.105 C 
ENDBRANCH   3   4
ENDBRANCH   2   3
ENDBRANCH   1   2
BRANCH   1  11
ATOM     11  C   UNL     1     -10.712  13.255  -7.645  1.00  0.00     0.125 A 
ATOM     12  C   UNL     1     -10.815  12.401  -8.680  1.00  0.00     0.093 A 
ATOM     13  C   UNL     1     -11.202  14.482  -7.860  1.00  0.00     0.073 A 
ATOM     14  C   UNL     1     -11.367  12.694  -9.880  1.00  0.00     0.132 A 
ATOM     15  C   UNL     1     -11.752  14.822  -9.035  1.00  0.00     0.054 A 
ATOM     16  C   UNL     1     -11.853  13.951 -10.077  1.00  0.00     0.062 A 
ATOM     17  N   UNL     1     -12.173  16.015  -9.099  1.00  0.00    -0.346 N 
ATOM     18  C   UNL     1     -12.431  14.430 -11.217  1.00  0.00     0.236 C 
ATOM     19  C   UNL     1     -12.694  16.366 -10.188  1.00  0.00     0.193 C 
ATOM     20  N   UNL     1     -12.833  15.641 -11.211  1.00  0.00    -0.246 NA
ATOM     21  H   UNL     1     -12.096  16.635  -8.336  1.00  0.00     0.167 HD
BRANCH  14  22
ATOM     22  O   UNL     1     -11.401  11.736 -10.876  1.00  0.00    -0.490 OA
BRANCH  22  23
ATOM     23  C   UNL     1     -10.863  10.446 -10.714  1.00  0.00     0.178 C 
ATOM     24  C   UNL     1     -11.905   9.332 -10.827  1.00  0.00     0.073 C 
ATOM     25  C   UNL     1      -9.825  10.285 -11.837  1.00  0.00     0.073 C 
ATOM     26  C   UNL     1     -11.239   7.972 -11.009  1.00  0.00     0.164 C 
ATOM     27  C   UNL     1      -9.314   8.851 -11.923  1.00  0.00     0.164 C 
ATOM     28  O   UNL     1     -10.389   7.976 -12.130  1.00  0.00    -0.381 OA
ENDBRANCH  22  23
ENDBRANCH  14  22
BRANCH  18  29
ATOM     29  N   UNL     1     -12.699  13.918 -12.361  1.00  0.00    -0.355 N 
ATOM     30  H   UNL     1     -11.872  13.410 -12.772  1.00  0.00     0.163 HD
BRANCH  29  31
ATOM     31  C   UNL     1     -13.698  13.849 -13.159  1.00  0.00     0.102 A 
ATOM     32  C   UNL     1     -13.893  14.673 -14.213  1.00  0.00     0.190 A 
ATOM     33  C   UNL     1     -14.654  12.896 -12.969  1.00  0.00     0.068 A 
ATOM     34  O   UNL     1     -13.175  15.601 -14.590  1.00  0.00    -0.451 OA
ATOM     35  C   UNL     1     -14.959  14.574 -15.018  1.00  0.00     0.168 A 
ATOM     36  C   UNL     1     -15.725  12.806 -13.783  1.00  0.00     0.027 A 
ATOM     37  C   UNL     1     -13.733  16.157 -15.779  1.00  0.00     0.468 C 
ATOM     38  O   UNL     1     -14.942  15.419 -15.913  1.00  0.00    -0.454 OA
ATOM     39  C   UNL     1     -15.893  13.640 -14.818  1.00  0.00     0.052 A 
ATOM     40  Cl  UNL     1     -14.622  11.728 -11.679  1.00  0.00    -0.082 Cl
ENDBRANCH  29  31
ENDBRANCH  18  29
ENDBRANCH   1  11
TORSDOF 8
ENDMDL
MODEL 5
REMARK VINA RESULT:    -8.871      2.027      2.746
REMARK INTER + INTRA:         -14.768
REMARK INTER:                 -13.152
REMARK INTRA:                  -1.615
REMARK UNBOUND:                -1.748
REMARK SMILES CN1CCN(CCOc2cc3c(c(OC4CCOCC4)c2)C(Nc2c(Cl)ccc4c2OCO4)N=CN3)CC1
REMARK SMILES IDX 8 1 7 2 6 3 5 4 2 5 3 6 38 7 4 8 37 9 1 10 9 11 21 12 10 13
REMARK SMILES IDX 13 14 11 15 12 16 36 17 22 18 35 19 34 20 14 22 15 23 16 24
REMARK SMILES IDX 20 25 17 26 19 27 18 28 23 29 24 31 30 32 25 33 31 34 29 35
REMARK SMILES IDX 27 36 32 37 33 38 28 39 26 40
REMARK H PARENT 36 21 23 30
ROOT
ATOM      1  O   UNL     1     -10.896  16.224  -7.853  1.00  0.00    -0.492 OA
ENDROOT
BRANCH   1   2
ATOM      2  C   UNL     1      -9.812  15.338  -7.708  1.00  0.00     0.245 C 
BRANCH   2   3
ATOM      3  C   UNL     1      -8.715  15.899  -6.788  1.00  0.00     0.126 C 
BRANCH   3   4
ATOM      4  N   UNL     1      -8.993  15.867  -5.356  1.00  0.00    -0.297 NA
ATOM      5  N   UNL     1      -8.068  16.054  -2.590  1.00  0.00    -0.304 NA
ATOM      6  C   UNL     1      -8.358  14.774  -3.212  1.00  0.00     0.099 C 
ATOM      7  C   UNL     1      -8.889  17.086  -3.196  1.00  0.00     0.099 C 
ATOM      8  C   UNL     1      -8.177  14.828  -4.736  1.00  0.00     0.100 C 
ATOM      9  C   UNL     1      -8.671  17.137  -4.720  1.00  0.00     0.100 C 
ATOM     10  C   UNL     1      -8.308  15.982  -1.159  1.00  0.00     0.105 C 
ENDBRANCH   3   4
ENDBRANCH   2   3
ENDBRANCH   1   2
BRANCH   1  11
ATOM     11  C   UNL     1     -11.738  15.971  -8.908  1.00  0.00     0.125 A 
ATOM     12  C   UNL     1     -11.563  14.909  -9.717  1.00  0.00     0.093 A 
ATOM     13  C   UNL     1     -12.791  16.746  -9.194  1.00  0.00     0.073 A 
ATOM     14  C   UNL     1     -12.358  14.588 -10.763  1.00  0.00     0.132 A 
ATOM     15  C   UNL     1     -13.603  16.472 -10.225  1.00  0.00     0.054 A 
ATOM     16  C   UNL     1     -13.419  15.396 -11.040  1.00  0.00     0.062 A 
ATOM     17  N   UNL     1     -14.557  17.292 -10.381  1.00  0.00    -0.346 N 
ATOM     18  C   UNL     1     -14.318  15.239 -12.054  1.00  0.00     0.236 C 
ATOM     19  C   UNL     1     -15.339  17.064 -11.341  1.00  0.00     0.193 C 
ATOM     20  N   UNL     1     -15.255  16.101 -12.152  1.00  0.00    -0.246 NA
ATOM     21  H   UNL     1     -14.681  18.065  -9.784  1.00  0.00     0.167 HD
BRANCH  14  22
ATOM     22  O   UNL     1     -12.067  13.479 -11.536  1.00  0.00    -0.490 OA
BRANCH  22  23
ATOM     23  C   UNL     1     -12.131  12.164 -11.040  1.00  0.00     0.178 C 
ATOM     24  C   UNL     1     -13.557  11.626 -10.921  1.00  0.00     0.073 C 
ATOM     25  C   UNL     1     -11.346  11.304 -12.043  1.00  0.00     0.073 C 
ATOM     26  C   UNL     1     -13.561  10.112 -10.735  1.00  0.00     0.164 C 
ATOM     27  C   UNL     1     -11.513   9.816 -11.753  1.00  0.00     0.164 C 
ATOM     28  O   UNL     1     -12.873   9.477 -11.785  1.00  0.00    -0.381 OA
ENDBRANCH  22  23
ENDBRANCH  14  22
BRANCH  18  29
ATOM     29  N   UNL     1     -14.468  14.369 -12.983  1.00  0.00    -0.355 N 
ATOM     30  H   UNL     1     -14.275  13.390 -12.645  1.00  0.00     0.163 HD
BRANCH  29  31
ATOM     31  C   UNL     1     -14.790  14.350 -14.222  1.00  0.00     0.102 A 
ATOM     32  C   UNL     1     -15.883  13.728 -14.719  1.00  0.00     0.190 A 
ATOM     33  C   UNL     1     -14.006  14.987 -15.138  1.00  0.00     0.068 A 
ATOM     34  O   UNL     1     -16.738  13.093 -14.099  1.00  0.00    -0.451 OA
ATOM     35  C   UNL     1     -16.178  13.722 -16.025  1.00  0.00     0.168 A 
ATOM     36  C   UNL     1     -14.310  14.974 -16.451  1.00  0.00     0.027 A 
ATOM     37  C   UNL     1     -17.743  12.665 -15.016  1.00  0.00     0.468 C 
ATOM     38  O   UNL     1     -17.213  13.100 -16.263  1.00  0.00    -0.454 OA
ATOM     39  C   UNL     1     -15.399  14.345 -16.914  1.00  0.00     0.052 A 
ATOM     40  Cl  UNL     1     -12.549  15.851 -14.738  1.00  0.00    -0.082 Cl
ENDBRANCH  29  31
ENDBRANCH  18  29
ENDBRANCH   1  11
TORSDOF 8
ENDMDL
MODEL 6
REMARK VINA RESULT:    -8.797      2.109      2.872
REMARK INTER + INTRA:         -14.660
REMARK INTER:                 -13.085
REMARK INTRA:                  -1.575
REMARK UNBOUND:                -1.748
REMARK SMILES CN1CCN(CCOc2cc3c(c(OC4CCOCC4)c2)C(Nc2c(Cl)ccc4c2OCO4)N=CN3)CC1
REMARK SMILES IDX 8 1 7 2 6 3 5 4 2 5 3 6 38 7 4 8 37 9 1 10 9 11 21 12 10 13
REMARK SMILES IDX 13 14 11 15 12 16 36 17 22 18 35 19 34 20 14 22 15 23 16 24
REMARK SMILES IDX 20 25 17 26 19 27 18 28 23 29 24 31 30 32 25 33 31 34 29 35
REMARK SMILES IDX 27 36 32 37 33 38 28 39 26 40
REMARK H PARENT 36 21 23 30
ROOT
ATOM      1  O   UNL     1      -9.143  15.735  -6.295  1.00  0.00    -0.492 OA
ENDROOT
BRANCH   1   2
ATOM      2  C   UNL     1      -8.683  17.036  -6.018  1.00  0.00     0.245 C 
BRANCH   2   3
ATOM      3  C   UNL     1      -7.591  17.055  -4.935  1.00  0.00     0.126 C 
BRANCH   3   4
ATOM      4  N   UNL     1      -7.159  18.370  -4.475  1.00  0.00    -0.297 NA
ATOM      5  N   UNL     1      -7.408  21.282  -4.530  1.00  0.00    -0.304 NA
ATOM      6  C   UNL     1      -6.343  20.594  -5.238  1.00  0.00     0.099 C 
ATOM      7  C   UNL     1      -7.808  20.499  -3.375  1.00  0.00     0.099 C 
ATOM      8  C   UNL     1      -6.748  19.165  -5.628  1.00  0.00     0.100 C 
ATOM      9  C   UNL     1      -8.233  19.079  -3.794  1.00  0.00     0.100 C 
ATOM     10  C   UNL     1      -6.968  22.606  -4.125  1.00  0.00     0.105 C 
ENDBRANCH   3   4
ENDBRANCH   2   3
ENDBRANCH   1   2
BRANCH   1  11
ATOM     11  C   UNL     1      -9.942  15.607  -7.404  1.00  0.00     0.125 A 
ATOM     12  C   UNL     1      -9.719  14.658  -8.333  1.00  0.00     0.093 A 
ATOM     13  C   UNL     1     -10.997  16.398  -7.630  1.00  0.00     0.073 A 
ATOM     14  C   UNL     1     -10.470  14.462  -9.441  1.00  0.00     0.132 A 
ATOM     15  C   UNL     1     -11.767  16.247  -8.718  1.00  0.00     0.054 A 
ATOM     16  C   UNL     1     -11.535  15.285  -9.654  1.00  0.00     0.062 A 
ATOM     17  N   UNL     1     -12.729  17.068  -8.805  1.00  0.00    -0.346 N 
ATOM     18  C   UNL     1     -12.394  15.246 -10.713  1.00  0.00     0.236 C 
ATOM     19  C   UNL     1     -13.471  16.953  -9.815  1.00  0.00     0.193 C 
ATOM     20  N   UNL     1     -13.342  16.102 -10.737  1.00  0.00    -0.246 NA
ATOM     21  H   UNL     1     -12.887  17.757  -8.120  1.00  0.00     0.167 HD
BRANCH  14  22
ATOM     22  O   UNL     1     -10.132  13.464 -10.336  1.00  0.00    -0.490 OA
BRANCH  22  23
ATOM     23  C   UNL     1     -10.010  12.113  -9.963  1.00  0.00     0.178 C 
ATOM     24  C   UNL     1     -11.007  11.685  -8.884  1.00  0.00     0.073 C 
ATOM     25  C   UNL     1     -10.270  11.304 -11.244  1.00  0.00     0.073 C 
ATOM     26  C   UNL     1     -11.084  10.166  -8.778  1.00  0.00     0.164 C 
ATOM     27  C   UNL     1     -10.388   9.812 -10.947  1.00  0.00     0.164 C 
ATOM     28  O   UNL     1     -11.416   9.593 -10.019  1.00  0.00    -0.381 OA
ENDBRANCH  22  23
ENDBRANCH  14  22
BRANCH  18  29
ATOM     29  N   UNL     1     -12.495  14.499 -11.750  1.00  0.00    -0.355 N 
ATOM     30  H   UNL     1     -11.577  14.050 -12.006  1.00  0.00     0.163 HD
BRANCH  29  31
ATOM     31  C   UNL     1     -13.406  14.139 -12.574  1.00  0.00     0.102 A 
ATOM     32  C   UNL     1     -13.703  14.793 -13.720  1.00  0.00     0.190 A 
ATOM     33  C   UNL     1     -14.153  13.027 -12.319  1.00  0.00     0.068 A 
ATOM     34  O   UNL     1     -13.172  15.812 -14.167  1.00  0.00    -0.451 OA
ATOM     35  C   UNL     1     -14.673  14.390 -14.550  1.00  0.00     0.168 A 
ATOM     36  C   UNL     1     -15.128  12.630 -13.160  1.00  0.00     0.027 A 
ATOM     37  C   UNL     1     -13.759  16.114 -15.432  1.00  0.00     0.468 C 
ATOM     38  O   UNL     1     -14.777  15.125 -15.531  1.00  0.00    -0.454 OA
ATOM     39  C   UNL     1     -15.401  13.302 -14.287  1.00  0.00     0.052 A 
ATOM     40  Cl  UNL     1     -13.958  12.026 -10.908  1.00  0.00    -0.082 Cl
ENDBRANCH  29  31
ENDBRANCH  18  29
ENDBRANCH   1  11
TORSDOF 8
ENDMDL
MODEL 7
REMARK VINA RESULT:    -8.749      1.476      1.936
REMARK INTER + INTRA:         -14.588
REMARK INTER:                 -12.759
REMARK INTRA:                  -1.829
REMARK UNBOUND:                -1.748
REMARK SMILES CN1CCN(CCOc2cc3c(c(OC4CCOCC4)c2)C(Nc2c(Cl)ccc4c2OCO4)N=CN3)CC1
REMARK SMILES IDX 8 1 7 2 6 3 5 4 2 5 3 6 38 7 4 8 37 9 1 10 9 11 21 12 10 13
REMARK SMILES IDX 13 14 11 15 12 16 36 17 22 18 35 19 34 20 14 22 15 23 16 24
REMARK SMILES IDX 20 25 17 26 19 27 18 28 23 29 24 31 30 32 25 33 31 34 29 35
REMARK SMILES IDX 27 36 32 37 33 38 28 39 26 40
REMARK H PARENT 36 21 23 30
ROOT
ATOM      1  O   UNL     1     -10.146  12.915  -6.423  1.00  0.00    -0.492 OA
ENDROOT
BRANCH   1   2
ATOM      2  C   UNL     1      -8.773  12.608  -6.470  1.00  0.00     0.245 C 
BRANCH   2   3
ATOM      3  C   UNL     1      -7.888  13.863  -6.389  1.00  0.00     0.126 C 
BRANCH   3   4
ATOM      4  N   UNL     1      -7.593  14.362  -5.050  1.00  0.00    -0.297 NA
ATOM      5  N   UNL     1      -8.459  14.975  -2.327  1.00  0.00    -0.304 NA
ATOM      6  C   UNL     1      -8.290  16.016  -3.326  1.00  0.00     0.099 C 
ATOM      7  C   UNL     1      -7.560  13.873  -2.616  1.00  0.00     0.099 C 
ATOM      8  C   UNL     1      -8.487  15.476  -4.749  1.00  0.00     0.100 C 
ATOM      9  C   UNL     1      -7.793  13.333  -4.040  1.00  0.00     0.100 C 
ATOM     10  C   UNL     1      -8.205  15.508  -0.999  1.00  0.00     0.105 C 
ENDBRANCH   3   4
ENDBRANCH   2   3
ENDBRANCH   1   2
BRANCH   1  11
ATOM     11  C   UNL     1     -10.715  13.297  -7.613  1.00  0.00     0.125 A 
ATOM     12  C   UNL     1     -10.785  12.462  -8.667  1.00  0.00     0.093 A 
ATOM     13  C   UNL     1     -11.245  14.510  -7.803  1.00  0.00     0.073 A 
ATOM     14  C   UNL     1     -11.342  12.762  -9.862  1.00  0.00     0.132 A 
ATOM     15  C   UNL     1     -11.802  14.856  -8.973  1.00  0.00     0.054 A 
ATOM     16  C   UNL     1     -11.870  14.005 -10.035  1.00  0.00     0.062 A 
ATOM     17  N   UNL     1     -12.263  16.036  -9.014  1.00  0.00    -0.346 N 
ATOM     18  C   UNL     1     -12.459  14.489 -11.166  1.00  0.00     0.236 C 
ATOM     19  C   UNL     1     -12.792  16.393 -10.098  1.00  0.00     0.193 C 
ATOM     20  N   UNL     1     -12.902  15.686 -11.137  1.00  0.00    -0.246 NA
ATOM     21  H   UNL     1     -12.210  16.641  -8.238  1.00  0.00     0.167 HD
BRANCH  14  22
ATOM     22  O   UNL     1     -11.339  11.825 -10.879  1.00  0.00    -0.490 OA
BRANCH  22  23
ATOM     23  C   UNL     1     -10.819  10.527 -10.721  1.00  0.00     0.178 C 
ATOM     24  C   UNL     1     -11.894   9.442 -10.655  1.00  0.00     0.073 C 
ATOM     25  C   UNL     1      -9.928  10.285 -11.951  1.00  0.00     0.073 C 
ATOM     26  C   UNL     1     -11.290   8.056 -10.850  1.00  0.00     0.164 C 
ATOM     27  C   UNL     1      -9.467   8.834 -12.029  1.00  0.00     0.164 C 
ATOM     28  O   UNL     1     -10.582   7.984 -12.063  1.00  0.00    -0.381 OA
ENDBRANCH  22  23
ENDBRANCH  14  22
BRANCH  18  29
ATOM     29  N   UNL     1     -12.705  13.993 -12.323  1.00  0.00    -0.355 N 
ATOM     30  H   UNL     1     -11.860  13.522 -12.740  1.00  0.00     0.163 HD
BRANCH  29  31
ATOM     31  C   UNL     1     -13.698  13.907 -13.126  1.00  0.00     0.102 A 
ATOM     32  C   UNL     1     -13.890  14.715 -14.194  1.00  0.00     0.190 A 
ATOM     33  C   UNL     1     -14.651  12.952 -12.929  1.00  0.00     0.068 A 
ATOM     34  O   UNL     1     -13.174  15.641 -14.579  1.00  0.00    -0.451 OA
ATOM     35  C   UNL     1     -14.950  14.599 -15.004  1.00  0.00     0.168 A 
ATOM     36  C   UNL     1     -15.716  12.845 -13.749  1.00  0.00     0.027 A 
ATOM     37  C   UNL     1     -13.727  16.176 -15.780  1.00  0.00     0.468 C 
ATOM     38  O   UNL     1     -14.932  15.430 -15.911  1.00  0.00    -0.454 OA
ATOM     39  C   UNL     1     -15.880  13.663 -14.797  1.00  0.00     0.052 A 
ATOM     40  Cl  UNL     1     -14.622  11.804 -11.622  1.00  0.00    -0.082 Cl
ENDBRANCH  29  31
ENDBRANCH  18  29
ENDBRANCH   1  11
TORSDOF 8
ENDMDL
MODEL 8
REMARK VINA RESULT:    -8.660      2.145      2.744
REMARK INTER + INTRA:         -14.459
REMARK INTER:                 -12.770
REMARK INTRA:                  -1.689
REMARK UNBOUND:                -1.748
REMARK SMILES CN1CCN(CCOc2cc3c(c(OC4CCOCC4)c2)C(Nc2c(Cl)ccc4c2OCO4)N=CN3)CC1
REMARK SMILES IDX 8 1 7 2 6 3 5 4 2 5 3 6 38 7 4 8 37 9 1 10 9 11 21 12 10 13
REMARK SMILES IDX 13 14 11 15 12 16 36 17 22 18 35 19 34 20 14 22 15 23 16 24
REMARK SMILES IDX 20 25 17 26 19 27 18 28 23 29 24 31 30 32 25 33 31 34 29 35
REMARK SMILES IDX 27 36 32 37 33 38 28 39 26 40
REMARK H PARENT 36 21 23 30
ROOT
ATOM      1  O   UNL     1      -9.419  16.284  -6.268  1.00  0.00    -0.492 OA
ENDROOT
BRANCH   1   2
ATOM      2  C   UNL     1      -9.572  17.566  -5.707  1.00  0.00     0.245 C 
BRANCH   2   3
ATOM      3  C   UNL     1      -8.235  18.163  -5.235  1.00  0.00     0.126 C 
BRANCH   3   4
ATOM      4  N   UNL     1      -7.909  17.983  -3.825  1.00  0.00    -0.297 NA
ATOM      5  N   UNL     1      -8.557  18.381  -1.003  1.00  0.00    -0.304 NA
ATOM      6  C   UNL     1      -7.557  19.190  -1.677  1.00  0.00     0.099 C 
ATOM      7  C   UNL     1      -8.628  17.074  -1.630  1.00  0.00     0.099 C 
ATOM      8  C   UNL     1      -7.829  19.292  -3.184  1.00  0.00     0.100 C 
ATOM      9  C   UNL     1      -8.925  17.202  -3.136  1.00  0.00     0.100 C 
ATOM     10  C   UNL     1      -8.235  18.257   0.408  1.00  0.00     0.105 C 
ENDBRANCH   3   4
ENDBRANCH   2   3
ENDBRANCH   1   2
BRANCH   1  11
ATOM     11  C   UNL     1     -10.156  16.034  -7.400  1.00  0.00     0.125 A 
ATOM     12  C   UNL     1      -9.802  15.081  -8.281  1.00  0.00     0.093 A 
ATOM     13  C   UNL     1     -11.275  16.705  -7.696  1.00  0.00     0.073 A 
ATOM     14  C   UNL     1     -10.484  14.769  -9.407  1.00  0.00     0.132 A 
ATOM     15  C   UNL     1     -11.981  16.437  -8.803  1.00  0.00     0.054 A 
ATOM     16  C   UNL     1     -11.616  15.470  -9.691  1.00  0.00     0.062 A 
ATOM     17  N   UNL     1     -13.017  17.151  -8.959  1.00  0.00    -0.346 N 
ATOM     18  C   UNL     1     -12.424  15.305 -10.778  1.00  0.00     0.236 C 
ATOM     19  C   UNL     1     -13.702  16.924  -9.990  1.00  0.00     0.193 C 
ATOM     20  N   UNL     1     -13.451  16.058 -10.871  1.00  0.00    -0.246 NA
ATOM     21  H   UNL     1     -13.271  17.845  -8.308  1.00  0.00     0.167 HD
BRANCH  14  22
ATOM     22  O   UNL     1     -10.011  13.778 -10.248  1.00  0.00    -0.490 OA
BRANCH  22  23
ATOM     23  C   UNL     1      -9.873  12.437  -9.846  1.00  0.00     0.178 C 
ATOM     24  C   UNL     1     -10.948  11.983  -8.858  1.00  0.00     0.073 C 
ATOM     25  C   UNL     1      -9.985  11.605 -11.135  1.00  0.00     0.073 C 
ATOM     26  C   UNL     1     -10.978  10.463  -8.738  1.00  0.00     0.164 C 
ATOM     27  C   UNL     1     -10.074  10.114 -10.830  1.00  0.00     0.164 C 
ATOM     28  O   UNL     1     -11.174   9.865  -9.997  1.00  0.00    -0.381 OA
ENDBRANCH  22  23
ENDBRANCH  14  22
BRANCH  18  29
ATOM     29  N   UNL     1     -12.407  14.515 -11.787  1.00  0.00    -0.355 N 
ATOM     30  H   UNL     1     -11.439  14.406 -12.190  1.00  0.00     0.163 HD
BRANCH  29  31
ATOM     31  C   UNL     1     -13.243  13.811 -12.454  1.00  0.00     0.102 A 
ATOM     32  C   UNL     1     -13.762  12.636 -12.032  1.00  0.00     0.190 A 
ATOM     33  C   UNL     1     -13.664  14.235 -13.680  1.00  0.00     0.068 A 
ATOM     34  O   UNL     1     -13.541  12.051 -10.969  1.00  0.00    -0.451 OA
ATOM     35  C   UNL     1     -14.626  11.923 -12.766  1.00  0.00     0.168 A 
ATOM     36  C   UNL     1     -14.532  13.510 -14.412  1.00  0.00     0.027 A 
ATOM     37  C   UNL     1     -14.352  10.879 -10.916  1.00  0.00     0.468 C 
ATOM     38  O   UNL     1     -14.973  10.889 -12.196  1.00  0.00    -0.454 OA
ATOM     39  C   UNL     1     -15.027  12.347 -13.967  1.00  0.00     0.052 A 
ATOM     40  Cl  UNL     1     -13.132  15.711 -14.434  1.00  0.00    -0.082 Cl
ENDBRANCH  29  31
ENDBRANCH  18  29
ENDBRANCH   1  11
TORSDOF 8
ENDMDL
MODEL 9
REMARK VINA RESULT:    -8.600      2.693      9.369
REMARK INTER + INTRA:         -14.370
REMARK INTER:                 -12.801
REMARK INTRA:                  -1.569
REMARK UNBOUND:                -1.748
REMARK SMILES CN1CCN(CCOc2cc3c(c(OC4CCOCC4)c2)C(Nc2c(Cl)ccc4c2OCO4)N=CN3)CC1
REMARK SMILES IDX 8 1 7 2 6 3 5 4 2 5 3 6 38 7 4 8 37 9 1 10 9 11 21 12 10 13
REMARK SMILES IDX 13 14 11 15 12 16 36 17 22 18 35 19 34 20 14 22 15 23 16 24
REMARK SMILES IDX 20 25 17 26 19 27 18 28 23 29 24 31 30 32 25 33 31 34 29 35
REMARK SMILES IDX 27 36 32 37 33 38 28 39 26 40
REMARK H PARENT 36 21 23 30
ROOT
ATOM      1  O   UNL     1     -13.163  15.941 -10.781  1.00  0.00    -0.492 OA
ENDROOT
BRANCH   1   2
ATOM      2  C   UNL     1     -13.215  14.844 -11.663  1.00  0.00     0.245 C 
BRANCH   2   3
ATOM      3  C   UNL     1     -13.251  15.278 -13.138  1.00  0.00     0.126 C 
BRANCH   3   4
ATOM      4  N   UNL     1     -14.457  14.934 -13.883  1.00  0.00    -0.297 NA
ATOM      5  N   UNL     1     -16.403  12.944 -14.776  1.00  0.00    -0.304 NA
ATOM      6  C   UNL     1     -15.362  13.442 -15.658  1.00  0.00     0.099 C 
ATOM      7  C   UNL     1     -16.741  13.963 -13.799  1.00  0.00     0.099 C 
ATOM      8  C   UNL     1     -14.129  13.913 -14.874  1.00  0.00     0.100 C 
ATOM      9  C   UNL     1     -15.493  14.402 -13.009  1.00  0.00     0.100 C 
ATOM     10  C   UNL     1     -17.575  12.565 -15.547  1.00  0.00     0.105 C 
ENDBRANCH   3   4
ENDBRANCH   2   3
ENDBRANCH   1   2
BRANCH   1  11
ATOM     11  C   UNL     1     -12.183  15.889  -9.820  1.00  0.00     0.125 A 
ATOM     12  C   UNL     1     -11.269  14.902  -9.790  1.00  0.00     0.093 A 
ATOM     13  C   UNL     1     -12.063  16.815  -8.861  1.00  0.00     0.073 A 
ATOM     14  C   UNL     1     -10.269  14.794  -8.886  1.00  0.00     0.132 A 
ATOM     15  C   UNL     1     -11.093  16.747  -7.938  1.00  0.00     0.054 A 
ATOM     16  C   UNL     1     -10.170  15.744  -7.915  1.00  0.00     0.062 A 
ATOM     17  N   UNL     1     -11.099  17.689  -7.090  1.00  0.00    -0.346 N 
ATOM     18  C   UNL     1      -9.241  15.795  -6.918  1.00  0.00     0.236 C 
ATOM     19  C   UNL     1     -10.201  17.654  -6.210  1.00  0.00     0.193 C 
ATOM     20  N   UNL     1      -9.305  16.772  -6.099  1.00  0.00    -0.246 NA
ATOM     21  H   UNL     1     -11.770  18.409  -7.119  1.00  0.00     0.167 HD
BRANCH  14  22
ATOM     22  O   UNL     1      -9.398  13.722  -8.946  1.00  0.00    -0.490 OA
BRANCH  22  23
ATOM     23  C   UNL     1      -9.745  12.486  -9.521  1.00  0.00     0.178 C 
ATOM     24  C   UNL     1      -8.591  11.815 -10.267  1.00  0.00     0.073 C 
ATOM     25  C   UNL     1     -10.181  11.591  -8.350  1.00  0.00     0.073 C 
ATOM     26  C   UNL     1      -8.899  10.348 -10.551  1.00  0.00     0.164 C 
ATOM     27  C   UNL     1     -10.378  10.146  -8.795  1.00  0.00     0.164 C 
ATOM     28  O   UNL     1      -9.192   9.658  -9.361  1.00  0.00    -0.381 OA
ENDBRANCH  22  23
ENDBRANCH  14  22
BRANCH  18  29
ATOM     29  N   UNL     1      -8.244  15.058  -6.592  1.00  0.00    -0.355 N 
ATOM     30  H   UNL     1      -7.883  14.497  -7.408  1.00  0.00     0.163 HD
BRANCH  29  31
ATOM     31  C   UNL     1      -7.554  14.805  -5.544  1.00  0.00     0.102 A 
ATOM     32  C   UNL     1      -8.034  14.183  -4.444  1.00  0.00     0.190 A 
ATOM     33  C   UNL     1      -6.241  15.170  -5.490  1.00  0.00     0.068 A 
ATOM     34  O   UNL     1      -9.176  13.757  -4.254  1.00  0.00    -0.451 OA
ATOM     35  C   UNL     1      -7.281  13.947  -3.362  1.00  0.00     0.168 A 
ATOM     36  C   UNL     1      -5.492  14.931  -4.395  1.00  0.00     0.027 A 
ATOM     37  C   UNL     1      -9.219  13.118  -2.979  1.00  0.00     0.468 C 
ATOM     38  O   UNL     1      -7.912  13.371  -2.476  1.00  0.00    -0.454 OA
ATOM     39  C   UNL     1      -5.998  14.315  -3.318  1.00  0.00     0.052 A 
ATOM     40  Cl  UNL     1      -5.404  15.986  -6.779  1.00  0.00    -0.082 Cl
ENDBRANCH  29  31
ENDBRANCH  18  29
ENDBRANCH   1  11
TORSDOF 8
ENDMDL
MODEL 10
REMARK VINA RESULT:    -8.514      2.632      9.238
REMARK INTER + INTRA:         -14.244
REMARK INTER:                 -12.697
REMARK INTRA:                  -1.547
REMARK UNBOUND:                -1.748
REMARK SMILES CN1CCN(CCOc2cc3c(c(OC4CCOCC4)c2)C(Nc2c(Cl)ccc4c2OCO4)N=CN3)CC1
REMARK SMILES IDX 8 1 7 2 6 3 5 4 2 5 3 6 38 7 4 8 37 9 1 10 9 11 21 12 10 13
REMARK SMILES IDX 13 14 11 15 12 16 36 17 22 18 35 19 34 20 14 22 15 23 16 24
REMARK SMILES IDX 20 25 17 26 19 27 18 28 23 29 24 31 30 32 25 33 31 34 29 35
REMARK SMILES IDX 27 36 32 37 33 38 28 39 26 40
REMARK H PARENT 36 21 23 30
ROOT
ATOM      1  O   UNL     1     -13.413  15.989 -10.953  1.00  0.00    -0.492 OA
ENDROOT
BRANCH   1   2
ATOM      2  C   UNL     1     -13.514  14.963 -11.912  1.00  0.00     0.245 C 
BRANCH   2   3
ATOM      3  C   UNL     1     -13.689  15.508 -13.339  1.00  0.00     0.126 C 
BRANCH   3   4
ATOM      4  N   UNL     1     -14.869  15.051 -14.066  1.00  0.00    -0.297 NA
ATOM      5  N   UNL     1     -16.580  12.877 -15.008  1.00  0.00    -0.304 NA
ATOM      6  C   UNL     1     -15.643  13.548 -15.892  1.00  0.00     0.099 C 
ATOM      7  C   UNL     1     -17.007  13.794 -13.967  1.00  0.00     0.099 C 
ATOM      8  C   UNL     1     -14.451  14.133 -15.121  1.00  0.00     0.100 C 
ATOM      9  C   UNL     1     -15.796  14.348 -13.192  1.00  0.00     0.100 C 
ATOM     10  C   UNL     1     -17.722  12.391 -15.763  1.00  0.00     0.105 C 
ENDBRANCH   3   4
ENDBRANCH   2   3
ENDBRANCH   1   2
BRANCH   1  11
ATOM     11  C   UNL     1     -12.393  15.860 -10.044  1.00  0.00     0.125 A 
ATOM     12  C   UNL     1     -11.509  14.846 -10.108  1.00  0.00     0.093 A 
ATOM     13  C   UNL     1     -12.199  16.731  -9.047  1.00  0.00     0.073 A 
ATOM     14  C   UNL     1     -10.472  14.663  -9.259  1.00  0.00     0.132 A 
ATOM     15  C   UNL     1     -11.189  16.587  -8.176  1.00  0.00     0.054 A 
ATOM     16  C   UNL     1     -10.298  15.559  -8.248  1.00  0.00     0.062 A 
ATOM     17  N   UNL     1     -11.126  17.484  -7.283  1.00  0.00    -0.346 N 
ATOM     18  C   UNL     1      -9.322  15.531  -7.295  1.00  0.00     0.236 C 
ATOM     19  C   UNL     1     -10.190  17.378  -6.449  1.00  0.00     0.193 C 
ATOM     20  N   UNL     1      -9.317  16.466  -6.426  1.00  0.00    -0.246 NA
ATOM     21  H   UNL     1     -11.775  18.224  -7.243  1.00  0.00     0.167 HD
BRANCH  14  22
ATOM     22  O   UNL     1      -9.638  13.571  -9.415  1.00  0.00    -0.490 OA
BRANCH  22  23
ATOM     23  C   UNL     1     -10.024  12.407 -10.104  1.00  0.00     0.178 C 
ATOM     24  C   UNL     1      -8.902  11.794 -10.943  1.00  0.00     0.073 C 
ATOM     25  C   UNL     1     -10.451  11.405  -9.019  1.00  0.00     0.073 C 
ATOM     26  C   UNL     1      -9.246  10.370 -11.367  1.00  0.00     0.164 C 
ATOM     27  C   UNL     1     -10.689  10.016  -9.603  1.00  0.00     0.164 C 
ATOM     28  O   UNL     1      -9.526   9.568 -10.246  1.00  0.00    -0.381 OA
ENDBRANCH  22  23
ENDBRANCH  14  22
BRANCH  18  29
ATOM     29  N   UNL     1      -8.335  14.750  -7.056  1.00  0.00    -0.355 N 
ATOM     30  H   UNL     1      -8.196  14.039  -7.822  1.00  0.00     0.163 HD
BRANCH  29  31
ATOM     31  C   UNL     1      -7.457  14.584  -6.139  1.00  0.00     0.102 A 
ATOM     32  C   UNL     1      -6.300  15.279  -6.053  1.00  0.00     0.190 A 
ATOM     33  C   UNL     1      -7.660  13.654  -5.162  1.00  0.00     0.068 A 
ATOM     34  O   UNL     1      -5.894  16.166  -6.807  1.00  0.00    -0.451 OA
ATOM     35  C   UNL     1      -5.401  15.067  -5.083  1.00  0.00     0.168 A 
ATOM     36  C   UNL     1      -6.749  13.446  -4.192  1.00  0.00     0.027 A 
ATOM     37  C   UNL     1      -4.656  16.663  -6.301  1.00  0.00     0.468 C 
ATOM     38  O   UNL     1      -4.422  15.805  -5.191  1.00  0.00    -0.454 OA
ATOM     39  C   UNL     1      -5.609  14.149  -4.136  1.00  0.00     0.052 A 
ATOM     40  Cl  UNL     1      -9.069  12.637  -5.066  1.00  0.00    -0.082 Cl
ENDBRANCH  29  31
ENDBRANCH  18  29
ENDBRANCH   1  11
TORSDOF 8
ENDMDL
