MODEL 1
REMARK VINA RESULT:   -13.840      0.000      0.000
REMARK INTER + INTRA:         -19.138
REMARK INTER:                 -19.503
REMARK INTRA:                   0.365
REMARK UNBOUND:                 0.365
REMARK SMILES Cc1ccc(NC(=O)c2ccc(CN3CCN(C)CC3)cc2)cc1Nc1nccc(-c2cccnc2)n1
REMARK SMILES IDX 6 1 7 2 8 3 5 5 24 6 2 7 23 8 3 9 4 10 1 11 25 12 26 14
REMARK SMILES IDX 30 15 29 16 37 17 28 18 27 19 31 20 33 21 32 22 34 23 35 24
REMARK SMILES IDX 36 25 9 26 10 27 22 28 11 29 21 30 12 31 13 32 14 33 15 34
REMARK SMILES IDX 20 35 16 36 19 37 17 38 18 39
REMARK H PARENT 6 4 25 13
ROOT
ATOM      1  N   UNL     1      24.085  26.063  40.153  1.00  0.00    -0.322 N 
ATOM      2  C   UNL     1      24.849  25.261  39.385  1.00  0.00     0.255 C 
ATOM      3  O   UNL     1      25.618  24.476  39.903  1.00  0.00    -0.269 OA
ATOM      4  H   UNL     1      23.427  26.644  39.742  1.00  0.00     0.170 HD
ENDROOT
BRANCH   1   5
ATOM      5  C   UNL     1      24.242  26.056  41.542  1.00  0.00     0.043 A 
ATOM      6  C   UNL     1      25.491  25.420  43.492  1.00  0.00     0.046 A 
ATOM      7  C   UNL     1      24.546  26.046  44.297  1.00  0.00    -0.027 A 
ATOM      8  C   UNL     1      25.336  25.421  42.113  1.00  0.00     0.052 A 
ATOM      9  C   UNL     1      23.456  26.673  43.725  1.00  0.00     0.008 A 
ATOM     10  C   UNL     1      23.301  26.680  42.352  1.00  0.00     0.026 A 
ATOM     11  C   UNL     1      24.712  26.041  45.794  1.00  0.00     0.046 C 
BRANCH   6  12
ATOM     12  N   UNL     1      26.594  24.786  44.072  1.00  0.00    -0.324 N 
ATOM     13  H   UNL     1      26.570  23.831  44.242  1.00  0.00     0.170 HD
BRANCH  12  14
ATOM     14  C   UNL     1      27.720  25.521  44.403  1.00  0.00     0.227 A 
ATOM     15  C   UNL     1      29.725  25.661  45.534  1.00  0.00     0.077 A 
ATOM     16  C   UNL     1      29.895  26.957  45.040  1.00  0.00     0.049 A 
ATOM     17  N   UNL     1      28.630  24.982  45.200  1.00  0.00    -0.213 NA
ATOM     18  C   UNL     1      28.916  27.482  44.215  1.00  0.00     0.117 A 
ATOM     19  N   UNL     1      27.854  26.748  43.922  1.00  0.00    -0.221 NA
BRANCH  15  20
ATOM     20  C   UNL     1      30.747  25.052  46.419  1.00  0.00     0.019 A 
ATOM     21  C   UNL     1      32.817  25.158  47.608  1.00  0.00     0.021 A 
ATOM     22  C   UNL     1      31.891  25.770  46.780  1.00  0.00     0.013 A 
ATOM     23  C   UNL     1      32.581  23.868  48.048  1.00  0.00     0.111 A 
ATOM     24  N   UNL     1      31.492  23.216  47.691  1.00  0.00    -0.264 NA
ATOM     25  C   UNL     1      30.581  23.759  46.908  1.00  0.00     0.121 A 
ENDBRANCH  15  20
ENDBRANCH  12  14
ENDBRANCH   6  12
ENDBRANCH   1   5
BRANCH   2  26
ATOM     26  C   UNL     1      24.751  25.336  37.912  1.00  0.00     0.040 A 
ATOM     27  C   UNL     1      23.768  26.126  37.313  1.00  0.00     0.014 A 
ATOM     28  C   UNL     1      25.640  24.616  37.113  1.00  0.00     0.014 A 
ATOM     29  C   UNL     1      23.682  26.190  35.938  1.00  0.00     0.006 A 
ATOM     30  C   UNL     1      25.539  24.684  35.739  1.00  0.00     0.006 A 
ATOM     31  C   UNL     1      24.567  25.474  35.153  1.00  0.00    -0.034 A 
BRANCH  31  32
ATOM     32  C   UNL     1      24.467  25.550  33.651  1.00  0.00     0.120 C 
BRANCH  32  33
ATOM     33  N   UNL     1      23.611  26.682  33.273  1.00  0.00    -0.297 NA
ATOM     34  C   UNL     1      23.048  26.365  31.956  1.00  0.00     0.100 C 
ATOM     35  C   UNL     1      24.496  27.838  33.093  1.00  0.00     0.100 C 
ATOM     36  C   UNL     1      22.239  27.556  31.442  1.00  0.00     0.099 C 
ATOM     37  C   UNL     1      23.687  29.030  32.579  1.00  0.00     0.099 C 
ATOM     38  N   UNL     1      23.124  28.713  31.261  1.00  0.00    -0.304 NA
ATOM     39  C   UNL     1      22.268  29.845  30.883  1.00  0.00     0.105 C 
ENDBRANCH  32  33
ENDBRANCH  31  32
ENDBRANCH   2  26
TORSDOF 7
ENDMDL
MODEL 2
REMARK VINA RESULT:   -12.829      1.056      1.534
REMARK INTER + INTRA:         -17.713
REMARK INTER:                 -17.539
REMARK INTRA:                  -0.174
REMARK UNBOUND:                 0.365
REMARK SMILES Cc1ccc(NC(=O)c2ccc(CN3CCN(C)CC3)cc2)cc1Nc1nccc(-c2cccnc2)n1
REMARK SMILES IDX 6 1 7 2 8 3 5 5 24 6 2 7 23 8 3 9 4 10 1 11 25 12 26 14
REMARK SMILES IDX 30 15 29 16 37 17 28 18 27 19 31 20 33 21 32 22 34 23 35 24
REMARK SMILES IDX 36 25 9 26 10 27 22 28 11 29 21 30 12 31 13 32 14 33 15 34
REMARK SMILES IDX 20 35 16 36 19 37 17 38 18 39
REMARK H PARENT 6 4 25 13
ROOT
ATOM      1  N   UNL     1      24.844  26.453  40.273  1.00  0.00    -0.322 N 
ATOM      2  C   UNL     1      24.867  25.287  39.597  1.00  0.00     0.255 C 
ATOM      3  O   UNL     1      24.882  24.234  40.203  1.00  0.00    -0.269 OA
ATOM      4  H   UNL     1      24.769  27.291  39.791  1.00  0.00     0.170 HD
ENDROOT
BRANCH   1   5
ATOM      5  C   UNL     1      24.931  26.454  41.668  1.00  0.00     0.043 A 
ATOM      6  C   UNL     1      26.249  26.574  43.672  1.00  0.00     0.046 A 
ATOM      7  C   UNL     1      25.094  26.453  44.435  1.00  0.00    -0.027 A 
ATOM      8  C   UNL     1      26.167  26.569  42.286  1.00  0.00     0.052 A 
ATOM      9  C   UNL     1      23.864  26.334  43.816  1.00  0.00     0.008 A 
ATOM     10  C   UNL     1      23.779  26.334  42.436  1.00  0.00     0.026 A 
ATOM     11  C   UNL     1      25.182  26.453  45.939  1.00  0.00     0.046 C 
BRANCH   6  12
ATOM     12  N   UNL     1      27.493  26.694  44.300  1.00  0.00    -0.324 N 
ATOM     13  H   UNL     1      27.919  27.563  44.367  1.00  0.00     0.170 HD
BRANCH  12  14
ATOM     14  C   UNL     1      28.114  25.574  44.825  1.00  0.00     0.227 A 
ATOM     15  C   UNL     1      29.875  24.662  46.001  1.00  0.00     0.077 A 
ATOM     16  C   UNL     1      29.309  23.395  45.835  1.00  0.00     0.049 A 
ATOM     17  N   UNL     1      29.255  25.718  45.480  1.00  0.00    -0.213 NA
ATOM     18  C   UNL     1      28.119  23.291  45.137  1.00  0.00     0.117 A 
ATOM     19  N   UNL     1      27.556  24.385  44.651  1.00  0.00    -0.221 NA
BRANCH  15  20
ATOM     20  C   UNL     1      31.149  24.826  46.743  1.00  0.00     0.019 A 
ATOM     21  C   UNL     1      32.782  24.038  48.298  1.00  0.00     0.021 A 
ATOM     22  C   UNL     1      31.587  23.837  47.628  1.00  0.00     0.013 A 
ATOM     23  C   UNL     1      33.498  25.199  48.071  1.00  0.00     0.111 A 
ATOM     24  N   UNL     1      33.058  26.114  47.229  1.00  0.00    -0.264 NA
ATOM     25  C   UNL     1      31.929  25.965  46.566  1.00  0.00     0.121 A 
ENDBRANCH  15  20
ENDBRANCH  12  14
ENDBRANCH   6  12
ENDBRANCH   1   5
BRANCH   2  26
ATOM     26  C   UNL     1      24.871  25.289  38.119  1.00  0.00     0.040 A 
ATOM     27  C   UNL     1      24.091  26.209  37.416  1.00  0.00     0.014 A 
ATOM     28  C   UNL     1      25.655  24.371  37.420  1.00  0.00     0.014 A 
ATOM     29  C   UNL     1      24.100  26.204  36.037  1.00  0.00     0.006 A 
ATOM     30  C   UNL     1      25.650  24.373  36.040  1.00  0.00     0.006 A 
ATOM     31  C   UNL     1      24.880  25.291  35.350  1.00  0.00    -0.034 A 
BRANCH  31  32
ATOM     32  C   UNL     1      24.884  25.293  33.844  1.00  0.00     0.120 C 
BRANCH  32  33
ATOM     33  N   UNL     1      23.780  26.127  33.351  1.00  0.00    -0.297 NA
ATOM     34  C   UNL     1      23.430  25.623  32.019  1.00  0.00     0.100 C 
ATOM     35  C   UNL     1      24.323  27.478  33.167  1.00  0.00     0.100 C 
ATOM     36  C   UNL     1      22.366  26.522  31.390  1.00  0.00     0.099 C 
ATOM     37  C   UNL     1      23.258  28.378  32.538  1.00  0.00     0.099 C 
ATOM     38  N   UNL     1      22.908  27.874  31.206  1.00  0.00    -0.304 NA
ATOM     39  C   UNL     1      21.805  28.708  30.713  1.00  0.00     0.105 C 
ENDBRANCH  32  33
ENDBRANCH  31  32
ENDBRANCH   2  26
TORSDOF 7
ENDMDL
MODEL 3
REMARK VINA RESULT:   -12.688      2.422     12.343
REMARK INTER + INTRA:         -17.515
REMARK INTER:                 -17.291
REMARK INTRA:                  -0.224
REMARK UNBOUND:                 0.365
REMARK SMILES Cc1ccc(NC(=O)c2ccc(CN3CCN(C)CC3)cc2)cc1Nc1nccc(-c2cccnc2)n1
REMARK SMILES IDX 6 1 7 2 8 3 5 5 24 6 2 7 23 8 3 9 4 10 1 11 25 12 26 14
REMARK SMILES IDX 30 15 29 16 37 17 28 18 27 19 31 20 33 21 32 22 34 23 35 24
REMARK SMILES IDX 36 25 9 26 10 27 22 28 11 29 21 30 12 31 13 32 14 33 15 34
REMARK SMILES IDX 20 35 16 36 19 37 17 38 18 39
REMARK H PARENT 6 4 25 13
ROOT
ATOM      1  N   UNL     1      27.832  26.393  44.365  1.00  0.00    -0.322 N 
ATOM      2  C   UNL     1      28.283  25.273  44.962  1.00  0.00     0.255 C 
ATOM      3  O   UNL     1      27.618  24.256  44.929  1.00  0.00    -0.269 OA
ATOM      4  H   UNL     1      28.390  27.186  44.337  1.00  0.00     0.170 HD
ENDROOT
BRANCH   1   5
ATOM      5  C   UNL     1      26.559  26.412  43.786  1.00  0.00     0.043 A 
ATOM      6  C   UNL     1      25.157  26.625  41.849  1.00  0.00     0.046 A 
ATOM      7  C   UNL     1      24.033  26.450  42.647  1.00  0.00    -0.027 A 
ATOM      8  C   UNL     1      26.422  26.611  42.420  1.00  0.00     0.052 A 
ATOM      9  C   UNL     1      24.174  26.258  44.009  1.00  0.00     0.008 A 
ATOM     10  C   UNL     1      25.432  26.238  44.580  1.00  0.00     0.026 A 
ATOM     11  C   UNL     1      22.660  26.471  42.029  1.00  0.00     0.046 C 
BRANCH   6  12
ATOM     12  N   UNL     1      25.013  26.819  40.471  1.00  0.00    -0.324 N 
ATOM     13  H   UNL     1      24.799  27.700  40.127  1.00  0.00     0.170 HD
BRANCH  12  14
ATOM     14  C   UNL     1      25.178  25.755  39.601  1.00  0.00     0.227 A 
ATOM     15  C   UNL     1      25.234  24.966  37.436  1.00  0.00     0.077 A 
ATOM     16  C   UNL     1      25.496  23.684  37.926  1.00  0.00     0.049 A 
ATOM     17  N   UNL     1      25.076  25.967  38.298  1.00  0.00    -0.213 NA
ATOM     18  C   UNL     1      25.587  23.508  39.295  1.00  0.00     0.117 A 
ATOM     19  N   UNL     1      25.424  24.551  40.094  1.00  0.00    -0.221 NA
BRANCH  15  20
ATOM     20  C   UNL     1      25.129  25.207  35.976  1.00  0.00     0.019 A 
ATOM     21  C   UNL     1      25.886  24.857  33.737  1.00  0.00     0.021 A 
ATOM     22  C   UNL     1      26.025  24.600  35.090  1.00  0.00     0.013 A 
ATOM     23  C   UNL     1      24.874  25.697  33.308  1.00  0.00     0.111 A 
ATOM     24  N   UNL     1      24.044  26.255  34.168  1.00  0.00    -0.264 NA
ATOM     25  C   UNL     1      24.135  26.037  35.465  1.00  0.00     0.121 A 
ENDBRANCH  15  20
ENDBRANCH  12  14
ENDBRANCH   6  12
ENDBRANCH   1   5
BRANCH   2  26
ATOM     26  C   UNL     1      29.588  25.278  45.656  1.00  0.00     0.040 A 
ATOM     27  C   UNL     1      30.034  24.136  46.322  1.00  0.00     0.014 A 
ATOM     28  C   UNL     1      30.381  26.427  45.647  1.00  0.00     0.014 A 
ATOM     29  C   UNL     1      31.254  24.149  46.967  1.00  0.00     0.006 A 
ATOM     30  C   UNL     1      31.596  26.429  46.302  1.00  0.00     0.006 A 
ATOM     31  C   UNL     1      32.034  25.291  46.955  1.00  0.00    -0.034 A 
BRANCH  31  32
ATOM     32  C   UNL     1      33.364  25.297  47.662  1.00  0.00     0.120 C 
BRANCH  32  33
ATOM     33  N   UNL     1      33.884  26.669  47.716  1.00  0.00    -0.297 NA
ATOM     34  C   UNL     1      34.665  26.876  46.491  1.00  0.00     0.100 C 
ATOM     35  C   UNL     1      34.829  26.718  48.838  1.00  0.00     0.100 C 
ATOM     36  C   UNL     1      35.340  28.246  46.535  1.00  0.00     0.099 C 
ATOM     37  C   UNL     1      35.504  28.089  48.882  1.00  0.00     0.099 C 
ATOM     38  N   UNL     1      36.286  28.295  47.657  1.00  0.00    -0.304 NA
ATOM     39  C   UNL     1      36.805  29.667  47.712  1.00  0.00     0.105 C 
ENDBRANCH  32  33
ENDBRANCH  31  32
ENDBRANCH   2  26
TORSDOF 7
ENDMDL
MODEL 4
REMARK VINA RESULT:   -11.084      2.997     11.764
REMARK INTER + INTRA:         -15.255
REMARK INTER:                 -14.276
REMARK INTRA:                  -0.979
REMARK UNBOUND:                 0.365
REMARK SMILES Cc1ccc(NC(=O)c2ccc(CN3CCN(C)CC3)cc2)cc1Nc1nccc(-c2cccnc2)n1
REMARK SMILES IDX 6 1 7 2 8 3 5 5 24 6 2 7 23 8 3 9 4 10 1 11 25 12 26 14
REMARK SMILES IDX 30 15 29 16 37 17 28 18 27 19 31 20 33 21 32 22 34 23 35 24
REMARK SMILES IDX 36 25 9 26 10 27 22 28 11 29 21 30 12 31 13 32 14 33 15 34
REMARK SMILES IDX 20 35 16 36 19 37 17 38 18 39
REMARK H PARENT 6 4 25 13
ROOT
ATOM      1  N   UNL     1      25.238  25.293  37.309  1.00  0.00    -0.322 N 
ATOM      2  C   UNL     1      24.366  25.689  38.257  1.00  0.00     0.255 C 
ATOM      3  O   UNL     1      23.269  26.104  37.939  1.00  0.00    -0.269 OA
ATOM      4  H   UNL     1      26.089  24.905  37.564  1.00  0.00     0.170 HD
ENDROOT
BRANCH   1   5
ATOM      5  C   UNL     1      24.916  25.444  35.957  1.00  0.00     0.043 A 
ATOM      6  C   UNL     1      24.347  26.853  34.097  1.00  0.00     0.046 A 
ATOM      7  C   UNL     1      24.277  25.735  33.276  1.00  0.00    -0.027 A 
ATOM      8  C   UNL     1      24.662  26.707  35.441  1.00  0.00     0.052 A 
ATOM      9  C   UNL     1      24.526  24.478  33.794  1.00  0.00     0.008 A 
ATOM     10  C   UNL     1      24.845  24.330  35.130  1.00  0.00     0.026 A 
ATOM     11  C   UNL     1      23.930  25.893  31.818  1.00  0.00     0.046 C 
BRANCH   6  12
ATOM     12  N   UNL     1      24.095  28.125  33.572  1.00  0.00    -0.324 N 
ATOM     13  H   UNL     1      24.736  28.536  32.970  1.00  0.00     0.170 HD
BRANCH  12  14
ATOM     14  C   UNL     1      22.932  28.795  33.910  1.00  0.00     0.227 A 
ATOM     15  C   UNL     1      21.884  30.426  35.158  1.00  0.00     0.077 A 
ATOM     16  C   UNL     1      20.670  30.084  34.558  1.00  0.00     0.049 A 
ATOM     17  N   UNL     1      22.984  29.760  34.815  1.00  0.00    -0.213 NA
ATOM     18  C   UNL     1      20.661  29.065  33.622  1.00  0.00     0.117 A 
ATOM     19  N   UNL     1      21.795  28.448  33.326  1.00  0.00    -0.221 NA
BRANCH  15  20
ATOM     20  C   UNL     1      21.946  31.513  36.166  1.00  0.00     0.019 A 
ATOM     21  C   UNL     1      21.096  33.529  37.125  1.00  0.00     0.021 A 
ATOM     22  C   UNL     1      20.994  32.537  36.164  1.00  0.00     0.013 A 
ATOM     23  C   UNL     1      22.125  33.476  38.046  1.00  0.00     0.111 A 
ATOM     24  N   UNL     1      23.009  32.497  38.022  1.00  0.00    -0.264 NA
ATOM     25  C   UNL     1      22.950  31.528  37.130  1.00  0.00     0.121 A 
ENDBRANCH  15  20
ENDBRANCH  12  14
ENDBRANCH   6  12
ENDBRANCH   1   5
BRANCH   2  26
ATOM     26  C   UNL     1      24.743  25.618  39.685  1.00  0.00     0.040 A 
ATOM     27  C   UNL     1      23.890  26.132  40.662  1.00  0.00     0.014 A 
ATOM     28  C   UNL     1      25.955  25.036  40.061  1.00  0.00     0.014 A 
ATOM     29  C   UNL     1      24.249  26.062  41.992  1.00  0.00     0.006 A 
ATOM     30  C   UNL     1      26.304  24.978  41.395  1.00  0.00     0.006 A 
ATOM     31  C   UNL     1      25.451  25.483  42.358  1.00  0.00    -0.034 A 
BRANCH  31  32
ATOM     32  C   UNL     1      25.835  25.410  43.813  1.00  0.00     0.120 C 
BRANCH  32  33
ATOM     33  N   UNL     1      27.297  25.475  43.938  1.00  0.00    -0.297 NA
ATOM     34  C   UNL     1      27.643  24.819  45.204  1.00  0.00     0.100 C 
ATOM     35  C   UNL     1      27.645  26.893  44.083  1.00  0.00     0.100 C 
ATOM     36  C   UNL     1      29.143  24.955  45.461  1.00  0.00     0.099 C 
ATOM     37  C   UNL     1      29.147  27.030  44.340  1.00  0.00     0.099 C 
ATOM     38  N   UNL     1      29.492  26.374  45.606  1.00  0.00    -0.304 NA
ATOM     39  C   UNL     1      30.954  26.438  45.731  1.00  0.00     0.105 C 
ENDBRANCH  32  33
ENDBRANCH  31  32
ENDBRANCH   2  26
TORSDOF 7
ENDMDL
MODEL 5
REMARK VINA RESULT:   -10.910      5.547     10.293
REMARK INTER + INTRA:         -15.009
REMARK INTER:                 -13.891
REMARK INTRA:                  -1.119
REMARK UNBOUND:                 0.365
REMARK SMILES Cc1ccc(NC(=O)c2ccc(CN3CCN(C)CC3)cc2)cc1Nc1nccc(-c2cccnc2)n1
REMARK SMILES IDX 6 1 7 2 8 3 5 5 24 6 2 7 23 8 3 9 4 10 1 11 25 12 26 14
REMARK SMILES IDX 30 15 29 16 37 17 28 18 27 19 31 20 33 21 32 22 34 23 35 24
REMARK SMILES IDX 36 25 9 26 10 27 22 28 11 29 21 30 12 31 13 32 14 33 15 34
REMARK SMILES IDX 20 35 16 36 19 37 17 38 18 39
REMARK H PARENT 6 4 25 13
ROOT
ATOM      1  N   UNL     1      32.470  26.219  45.803  1.00  0.00    -0.322 N 
ATOM      2  C   UNL     1      31.280  26.838  45.927  1.00  0.00     0.255 C 
ATOM      3  O   UNL     1      31.192  27.861  46.577  1.00  0.00    -0.269 OA
ATOM      4  H   UNL     1      32.554  25.438  45.234  1.00  0.00     0.170 HD
ENDROOT
BRANCH   1   5
ATOM      5  C   UNL     1      33.584  26.702  46.497  1.00  0.00     0.043 A 
ATOM      6  C   UNL     1      35.522  28.116  46.595  1.00  0.00     0.046 A 
ATOM      7  C   UNL     1      35.791  27.653  47.877  1.00  0.00    -0.027 A 
ATOM      8  C   UNL     1      34.420  27.636  45.902  1.00  0.00     0.052 A 
ATOM      9  C   UNL     1      34.959  26.718  48.464  1.00  0.00     0.008 A 
ATOM     10  C   UNL     1      33.858  26.242  47.779  1.00  0.00     0.026 A 
ATOM     11  C   UNL     1      36.990  28.170  48.628  1.00  0.00     0.046 C 
BRANCH   6  12
ATOM     12  N   UNL     1      36.364  29.062  46.002  1.00  0.00    -0.324 N 
ATOM     13  H   UNL     1      37.326  28.937  46.026  1.00  0.00     0.170 HD
BRANCH  12  14
ATOM     14  C   UNL     1      35.825  30.176  45.380  1.00  0.00     0.227 A 
ATOM     15  C   UNL     1      34.981  32.315  45.547  1.00  0.00     0.077 A 
ATOM     16  C   UNL     1      34.779  32.326  44.164  1.00  0.00     0.049 A 
ATOM     17  N   UNL     1      35.497  31.227  46.114  1.00  0.00    -0.213 NA
ATOM     18  C   UNL     1      35.132  31.202  43.437  1.00  0.00     0.117 A 
ATOM     19  N   UNL     1      35.644  30.158  44.068  1.00  0.00    -0.221 NA
BRANCH  15  20
ATOM     20  C   UNL     1      34.621  33.495  46.370  1.00  0.00     0.019 A 
ATOM     21  C   UNL     1      34.604  34.669  48.450  1.00  0.00     0.021 A 
ATOM     22  C   UNL     1      34.963  33.546  47.724  1.00  0.00     0.013 A 
ATOM     23  C   UNL     1      33.927  35.696  47.817  1.00  0.00     0.111 A 
ATOM     24  N   UNL     1      33.618  35.618  46.537  1.00  0.00    -0.264 NA
ATOM     25  C   UNL     1      33.943  34.572  45.805  1.00  0.00     0.121 A 
ENDBRANCH  15  20
ENDBRANCH  12  14
ENDBRANCH   6  12
ENDBRANCH   1   5
BRANCH   2  26
ATOM     26  C   UNL     1      30.081  26.275  45.270  1.00  0.00     0.040 A 
ATOM     27  C   UNL     1      29.616  26.819  44.072  1.00  0.00     0.014 A 
ATOM     28  C   UNL     1      29.409  25.195  45.846  1.00  0.00     0.014 A 
ATOM     29  C   UNL     1      28.497  26.288  43.466  1.00  0.00     0.006 A 
ATOM     30  C   UNL     1      28.288  24.678  45.232  1.00  0.00     0.006 A 
ATOM     31  C   UNL     1      27.836  25.218  44.041  1.00  0.00    -0.034 A 
BRANCH  31  32
ATOM     32  C   UNL     1      26.615  24.644  43.372  1.00  0.00     0.120 C 
BRANCH  32  33
ATOM     33  N   UNL     1      25.658  25.721  43.089  1.00  0.00    -0.297 NA
ATOM     34  C   UNL     1      24.713  25.754  44.211  1.00  0.00     0.100 C 
ATOM     35  C   UNL     1      24.898  25.310  41.903  1.00  0.00     0.100 C 
ATOM     36  C   UNL     1      23.612  26.774  43.928  1.00  0.00     0.099 C 
ATOM     37  C   UNL     1      23.796  26.331  41.619  1.00  0.00     0.099 C 
ATOM     38  N   UNL     1      22.851  26.363  42.741  1.00  0.00    -0.304 NA
ATOM     39  C   UNL     1      21.894  27.440  42.459  1.00  0.00     0.105 C 
ENDBRANCH  32  33
ENDBRANCH  31  32
ENDBRANCH   2  26
TORSDOF 7
ENDMDL
