MODEL 1
REMARK VINA RESULT:    -7.389      0.000      0.000
REMARK INTER + INTRA:         -10.884
REMARK INTER:                  -9.764
REMARK INTRA:                  -1.119
REMARK UNBOUND:                -1.119
REMARK SMILES CCCNC(=O)c1nnc2c(-c3c(F)cccc3OC)cccc2c1N
REMARK SMILES IDX 7 1 8 2 9 3 10 4 24 5 25 6 23 7 22 8 21 9 11 10 5 11 4 12
REMARK SMILES IDX 6 13 3 15 2 16 1 17 26 18 12 21 18 22 13 23 17 24 15 25
REMARK SMILES IDX 16 26 14 27 19 28 20 29
REMARK H PARENT 4 14 26 19 26 20
ROOT
ATOM      1  C   UNL     1     142.765  97.194 138.150  1.00  0.00     0.174 A 
ATOM      2  N   UNL     1     141.558  97.683 137.790  1.00  0.00    -0.142 NA
ATOM      3  N   UNL     1     141.230  97.750 136.466  1.00  0.00    -0.149 NA
ATOM      4  C   UNL     1     142.092  97.368 135.500  1.00  0.00     0.103 A 
ATOM      5  C   UNL     1     143.368  96.863 135.845  1.00  0.00     0.028 A 
ATOM      6  C   UNL     1     143.703  96.731 137.219  1.00  0.00     0.075 A 
ATOM      7  C   UNL     1     144.264  96.518 134.803  1.00  0.00     0.013 A 
ATOM      8  C   UNL     1     143.907  96.639 133.464  1.00  0.00     0.002 A 
ATOM      9  C   UNL     1     142.646  97.112 133.135  1.00  0.00     0.011 A 
ATOM     10  C   UNL     1     141.737  97.480 134.142  1.00  0.00     0.017 A 
ENDROOT
BRANCH   1  11
ATOM     11  C   UNL     1     142.999  97.133 139.630  1.00  0.00     0.273 C 
ATOM     12  N   UNL     1     142.047  96.430 140.345  1.00  0.00    -0.351 N 
ATOM     13  O   UNL     1     143.977  97.663 140.149  1.00  0.00    -0.267 OA
ATOM     14  H   UNL     1     141.276  96.026 139.820  1.00  0.00     0.163 HD
BRANCH  12  15
ATOM     15  C   UNL     1     142.083  96.282 141.783  1.00  0.00     0.116 C 
BRANCH  15  16
ATOM     16  C   UNL     1     141.226  97.327 142.495  1.00  0.00     0.018 C 
ATOM     17  C   UNL     1     141.993  98.109 143.552  1.00  0.00     0.006 C 
ENDBRANCH  15  16
ENDBRANCH  12  15
ENDBRANCH   1  11
BRANCH   6  18
ATOM     18  N   UNL     1     145.005  96.313 137.606  1.00  0.00    -0.396 N 
ATOM     19  H   UNL     1     145.007  95.344 137.953  1.00  0.00     0.156 HD
ATOM     20  H   UNL     1     145.711  96.446 136.889  1.00  0.00     0.156 HD
ENDBRANCH   6  18
BRANCH  10  21
ATOM     21  C   UNL     1     140.409  97.988 133.748  1.00  0.00     0.062 A 
ATOM     22  C   UNL     1     139.328  97.121 133.480  1.00  0.00     0.129 A 
ATOM     23  C   UNL     1     140.201  99.370 133.620  1.00  0.00     0.134 A 
ATOM     24  C   UNL     1     138.085  97.650 133.104  1.00  0.00     0.047 A 
ATOM     25  C   UNL     1     138.968  99.892 133.241  1.00  0.00     0.040 A 
ATOM     26  C   UNL     1     137.908  99.032 132.983  1.00  0.00     0.007 A 
ATOM     27  F   UNL     1     141.202 100.227 133.874  1.00  0.00    -0.206 F 
BRANCH  22  28
ATOM     28  O   UNL     1     139.580  95.779 133.630  1.00  0.00    -0.496 OA
ATOM     29  C   UNL     1     139.579  94.979 132.455  1.00  0.00     0.278 C 
ENDBRANCH  22  28
ENDBRANCH  10  21
TORSDOF 6
ENDMDL
MODEL 2
REMARK VINA RESULT:    -7.119      1.674      2.253
REMARK INTER + INTRA:         -10.528
REMARK INTER:                  -9.395
REMARK INTRA:                  -1.133
REMARK UNBOUND:                -1.119
REMARK SMILES CCCNC(=O)c1nnc2c(-c3c(F)cccc3OC)cccc2c1N
REMARK SMILES IDX 7 1 8 2 9 3 10 4 24 5 25 6 23 7 22 8 21 9 11 10 5 11 4 12
REMARK SMILES IDX 6 13 3 15 2 16 1 17 26 18 12 21 18 22 13 23 17 24 15 25
REMARK SMILES IDX 16 26 14 27 19 28 20 29
REMARK H PARENT 4 14 26 19 26 20
ROOT
ATOM      1  C   UNL     1     142.853  96.706 137.711  1.00  0.00     0.174 A 
ATOM      2  N   UNL     1     141.607  96.964 137.255  1.00  0.00    -0.142 NA
ATOM      3  N   UNL     1     141.337  96.816 135.924  1.00  0.00    -0.149 NA
ATOM      4  C   UNL     1     142.291  96.449 135.042  1.00  0.00     0.103 A 
ATOM      5  C   UNL     1     143.608  96.185 135.487  1.00  0.00     0.028 A 
ATOM      6  C   UNL     1     143.891  96.275 136.877  1.00  0.00     0.075 A 
ATOM      7  C   UNL     1     144.593  95.850 134.526  1.00  0.00     0.013 A 
ATOM      8  C   UNL     1     144.287  95.749 133.173  1.00  0.00     0.002 A 
ATOM      9  C   UNL     1     142.990  95.987 132.748  1.00  0.00     0.011 A 
ATOM     10  C   UNL     1     141.989  96.338 133.671  1.00  0.00     0.017 A 
ENDROOT
BRANCH   1  11
ATOM     11  C   UNL     1     143.021  96.864 139.193  1.00  0.00     0.273 C 
ATOM     12  N   UNL     1     142.212  96.052 139.964  1.00  0.00    -0.351 N 
ATOM     13  O   UNL     1     143.833  97.654 139.668  1.00  0.00    -0.267 OA
ATOM     14  H   UNL     1     141.574  95.430 139.474  1.00  0.00     0.163 HD
BRANCH  12  15
ATOM     15  C   UNL     1     142.208  96.077 141.410  1.00  0.00     0.116 C 
BRANCH  15  16
ATOM     16  C   UNL     1     141.052  96.902 141.973  1.00  0.00     0.018 C 
ATOM     17  C   UNL     1     141.413  97.639 143.255  1.00  0.00     0.006 C 
ENDBRANCH  15  16
ENDBRANCH  12  15
ENDBRANCH   1  11
BRANCH   6  18
ATOM     18  N   UNL     1     145.219  96.106 137.353  1.00  0.00    -0.396 N 
ATOM     19  H   UNL     1     145.266  95.415 138.115  1.00  0.00     0.156 HD
ATOM     20  H   UNL     1     145.894  95.893 136.626  1.00  0.00     0.156 HD
ENDBRANCH   6  18
BRANCH  10  21
ATOM     21  C   UNL     1     140.623  96.591 133.175  1.00  0.00     0.062 A 
ATOM     22  C   UNL     1     140.205  97.876 132.766  1.00  0.00     0.129 A 
ATOM     23  C   UNL     1     139.697  95.539 133.115  1.00  0.00     0.134 A 
ATOM     24  C   UNL     1     138.894  98.069 132.306  1.00  0.00     0.047 A 
ATOM     25  C   UNL     1     138.395  95.735 132.664  1.00  0.00     0.040 A 
ATOM     26  C   UNL     1     137.993  97.001 132.258  1.00  0.00     0.007 A 
ATOM     27  F   UNL     1     140.060  94.302 133.488  1.00  0.00    -0.206 F 
BRANCH  22  28
ATOM     28  O   UNL     1     141.151  98.869 132.834  1.00  0.00    -0.496 OA
ATOM     29  C   UNL     1     140.981  99.864 133.834  1.00  0.00     0.278 C 
ENDBRANCH  22  28
ENDBRANCH  10  21
TORSDOF 6
ENDMDL
MODEL 3
REMARK VINA RESULT:    -6.914      1.824      3.475
REMARK INTER + INTRA:         -10.257
REMARK INTER:                  -9.441
REMARK INTRA:                  -0.816
REMARK UNBOUND:                -1.119
REMARK SMILES CCCNC(=O)c1nnc2c(-c3c(F)cccc3OC)cccc2c1N
REMARK SMILES IDX 7 1 8 2 9 3 10 4 24 5 25 6 23 7 22 8 21 9 11 10 5 11 4 12
REMARK SMILES IDX 6 13 3 15 2 16 1 17 26 18 12 21 18 22 13 23 17 24 15 25
REMARK SMILES IDX 16 26 14 27 19 28 20 29
REMARK H PARENT 4 14 26 19 26 20
ROOT
ATOM      1  C   UNL     1     142.088  96.819 138.524  1.00  0.00     0.174 A 
ATOM      2  N   UNL     1     143.027  96.458 137.621  1.00  0.00    -0.142 NA
ATOM      3  N   UNL     1     142.898  96.864 136.323  1.00  0.00    -0.149 NA
ATOM      4  C   UNL     1     141.841  97.593 135.908  1.00  0.00     0.103 A 
ATOM      5  C   UNL     1     140.836  97.976 136.828  1.00  0.00     0.028 A 
ATOM      6  C   UNL     1     140.984  97.614 138.193  1.00  0.00     0.075 A 
ATOM      7  C   UNL     1     139.717  98.699 136.345  1.00  0.00     0.013 A 
ATOM      8  C   UNL     1     139.603  99.060 135.007  1.00  0.00     0.002 A 
ATOM      9  C   UNL     1     140.603  98.701 134.117  1.00  0.00     0.011 A 
ATOM     10  C   UNL     1     141.720  97.968 134.556  1.00  0.00     0.017 A 
ENDROOT
BRANCH   1  11
ATOM     11  C   UNL     1     142.354  96.349 139.924  1.00  0.00     0.273 C 
ATOM     12  N   UNL     1     142.685  97.345 140.823  1.00  0.00    -0.351 N 
ATOM     13  O   UNL     1     142.267  95.163 140.231  1.00  0.00    -0.267 OA
ATOM     14  H   UNL     1     142.728  98.296 140.469  1.00  0.00     0.163 HD
BRANCH  12  15
ATOM     15  C   UNL     1     143.002  97.088 142.211  1.00  0.00     0.116 C 
BRANCH  15  16
ATOM     16  C   UNL     1     142.118  97.887 143.166  1.00  0.00     0.018 C 
ATOM     17  C   UNL     1     142.896  98.892 144.002  1.00  0.00     0.006 C 
ENDBRANCH  15  16
ENDBRANCH  12  15
ENDBRANCH   1  11
BRANCH   6  18
ATOM     18  N   UNL     1     139.955  97.900 139.130  1.00  0.00    -0.396 N 
ATOM     19  H   UNL     1     139.032  97.955 138.678  1.00  0.00     0.156 HD
ATOM     20  H   UNL     1     139.935  97.272 139.927  1.00  0.00     0.156 HD
ENDBRANCH   6  18
BRANCH  10  21
ATOM     21  C   UNL     1     142.757  97.599 133.575  1.00  0.00     0.062 A 
ATOM     22  C   UNL     1     142.669  96.419 132.805  1.00  0.00     0.129 A 
ATOM     23  C   UNL     1     143.877  98.426 133.398  1.00  0.00     0.134 A 
ATOM     24  C   UNL     1     143.682  96.107 131.887  1.00  0.00     0.047 A 
ATOM     25  C   UNL     1     144.884  98.111 132.491  1.00  0.00     0.040 A 
ATOM     26  C   UNL     1     144.786  96.950 131.734  1.00  0.00     0.007 A 
ATOM     27  F   UNL     1     143.993  99.560 134.106  1.00  0.00    -0.206 F 
BRANCH  22  28
ATOM     28  O   UNL     1     141.549  95.649 133.007  1.00  0.00    -0.496 OA
ATOM     29  C   UNL     1     141.739  94.355 133.563  1.00  0.00     0.278 C 
ENDBRANCH  22  28
ENDBRANCH  10  21
TORSDOF 6
ENDMDL
MODEL 4
REMARK VINA RESULT:    -6.760      2.529      4.452
REMARK INTER + INTRA:         -10.053
REMARK INTER:                  -9.109
REMARK INTRA:                  -0.944
REMARK UNBOUND:                -1.119
REMARK SMILES CCCNC(=O)c1nnc2c(-c3c(F)cccc3OC)cccc2c1N
REMARK SMILES IDX 7 1 8 2 9 3 10 4 24 5 25 6 23 7 22 8 21 9 11 10 5 11 4 12
REMARK SMILES IDX 6 13 3 15 2 16 1 17 26 18 12 21 18 22 13 23 17 24 15 25
REMARK SMILES IDX 16 26 14 27 19 28 20 29
REMARK H PARENT 4 14 26 19 26 20
ROOT
ATOM      1  C   UNL     1     142.170  96.771 139.248  1.00  0.00     0.174 A 
ATOM      2  N   UNL     1     143.208  96.197 138.599  1.00  0.00    -0.142 NA
ATOM      3  N   UNL     1     143.232  96.208 137.233  1.00  0.00    -0.149 NA
ATOM      4  C   UNL     1     142.230  96.751 136.509  1.00  0.00     0.103 A 
ATOM      5  C   UNL     1     141.125  97.348 137.160  1.00  0.00     0.028 A 
ATOM      6  C   UNL     1     141.113  97.399 138.580  1.00  0.00     0.075 A 
ATOM      7  C   UNL     1     140.070  97.864 136.367  1.00  0.00     0.013 A 
ATOM      8  C   UNL     1     140.114  97.821 134.978  1.00  0.00     0.002 A 
ATOM      9  C   UNL     1     141.211  97.255 134.347  1.00  0.00     0.011 A 
ATOM     10  C   UNL     1     142.269  96.718 135.102  1.00  0.00     0.017 A 
ENDROOT
BRANCH   1  11
ATOM     11  C   UNL     1     142.271  96.732 140.744  1.00  0.00     0.273 C 
ATOM     12  N   UNL     1     143.280  97.506 141.284  1.00  0.00    -0.351 N 
ATOM     13  O   UNL     1     141.496  96.064 141.423  1.00  0.00    -0.267 OA
ATOM     14  H   UNL     1     143.867  98.024 140.634  1.00  0.00     0.163 HD
BRANCH  12  15
ATOM     15  C   UNL     1     143.554  97.579 142.702  1.00  0.00     0.116 C 
BRANCH  15  16
ATOM     16  C   UNL     1     142.613  98.540 143.426  1.00  0.00     0.018 C 
ATOM     17  C   UNL     1     143.332  99.451 144.411  1.00  0.00     0.006 C 
ENDBRANCH  15  16
ENDBRANCH  12  15
ENDBRANCH   1  11
BRANCH   6  18
ATOM     18  N   UNL     1     139.981  97.908 139.272  1.00  0.00    -0.396 N 
ATOM     19  H   UNL     1     139.481  97.167 139.782  1.00  0.00     0.156 HD
ATOM     20  H   UNL     1     140.189  98.693 139.881  1.00  0.00     0.156 HD
ENDBRANCH   6  18
BRANCH  10  21
ATOM     21  C   UNL     1     143.414  96.117 134.391  1.00  0.00     0.062 A 
ATOM     22  C   UNL     1     144.520  96.888 133.973  1.00  0.00     0.129 A 
ATOM     23  C   UNL     1     143.413  94.744 134.104  1.00  0.00     0.134 A 
ATOM     24  C   UNL     1     145.583  96.272 133.296  1.00  0.00     0.047 A 
ATOM     25  C   UNL     1     144.466  94.137 133.427  1.00  0.00     0.040 A 
ATOM     26  C   UNL     1     145.553  94.902 133.023  1.00  0.00     0.007 A 
ATOM     27  F   UNL     1     142.382  93.976 134.492  1.00  0.00    -0.206 F 
BRANCH  22  28
ATOM     28  O   UNL     1     144.477  98.224 134.287  1.00  0.00    -0.496 OA
ATOM     29  C   UNL     1     144.108  99.126 133.253  1.00  0.00     0.278 C 
ENDBRANCH  22  28
ENDBRANCH  10  21
TORSDOF 6
ENDMDL
MODEL 5
REMARK VINA RESULT:    -6.643      2.271      3.953
REMARK INTER + INTRA:          -9.898
REMARK INTER:                  -9.234
REMARK INTRA:                  -0.664
REMARK UNBOUND:                -1.119
REMARK SMILES CCCNC(=O)c1nnc2c(-c3c(F)cccc3OC)cccc2c1N
REMARK SMILES IDX 7 1 8 2 9 3 10 4 24 5 25 6 23 7 22 8 21 9 11 10 5 11 4 12
REMARK SMILES IDX 6 13 3 15 2 16 1 17 26 18 12 21 18 22 13 23 17 24 15 25
REMARK SMILES IDX 16 26 14 27 19 28 20 29
REMARK H PARENT 4 14 26 19 26 20
ROOT
ATOM      1  C   UNL     1     141.984  96.990 137.349  1.00  0.00     0.174 A 
ATOM      2  N   UNL     1     142.709  96.304 136.438  1.00  0.00    -0.142 NA
ATOM      3  N   UNL     1     142.278  96.249 135.143  1.00  0.00    -0.149 NA
ATOM      4  C   UNL     1     141.128  96.836 134.752  1.00  0.00     0.103 A 
ATOM      5  C   UNL     1     140.340  97.550 135.685  1.00  0.00     0.028 A 
ATOM      6  C   UNL     1     140.804  97.668 137.023  1.00  0.00     0.075 A 
ATOM      7  C   UNL     1     139.114  98.111 135.248  1.00  0.00     0.013 A 
ATOM      8  C   UNL     1     138.690  97.998 133.928  1.00  0.00     0.002 A 
ATOM      9  C   UNL     1     139.479  97.318 133.015  1.00  0.00     0.011 A 
ATOM     10  C   UNL     1     140.693  96.733 133.416  1.00  0.00     0.017 A 
ENDROOT
BRANCH   1  11
ATOM     11  C   UNL     1     142.574  97.014 138.728  1.00  0.00     0.273 C 
ATOM     12  N   UNL     1     141.794  96.430 139.709  1.00  0.00    -0.351 N 
ATOM     13  O   UNL     1     143.676  97.509 138.947  1.00  0.00    -0.267 OA
ATOM     14  H   UNL     1     140.897  96.046 139.423  1.00  0.00     0.163 HD
BRANCH  12  15
ATOM     15  C   UNL     1     142.178  96.379 141.103  1.00  0.00     0.116 C 
BRANCH  15  16
ATOM     16  C   UNL     1     141.083  96.909 142.026  1.00  0.00     0.018 C 
ATOM     17  C   UNL     1     141.628  97.671 143.225  1.00  0.00     0.006 C 
ENDBRANCH  15  16
ENDBRANCH  12  15
ENDBRANCH   1  11
BRANCH   6  18
ATOM     18  N   UNL     1     140.000  98.299 138.010  1.00  0.00    -0.396 N 
ATOM     19  H   UNL     1     140.316  99.260 138.202  1.00  0.00     0.156 HD
ATOM     20  H   UNL     1     139.005  98.274 137.811  1.00  0.00     0.156 HD
ENDBRANCH   6  18
BRANCH  10  21
ATOM     21  C   UNL     1     141.498  96.009 132.414  1.00  0.00     0.062 A 
ATOM     22  C   UNL     1     142.399  96.677 131.557  1.00  0.00     0.129 A 
ATOM     23  C   UNL     1     141.366  94.618 132.286  1.00  0.00     0.134 A 
ATOM     24  C   UNL     1     143.139  95.947 130.616  1.00  0.00     0.047 A 
ATOM     25  C   UNL     1     142.097  93.896 131.348  1.00  0.00     0.040 A 
ATOM     26  C   UNL     1     142.986  94.561 130.512  1.00  0.00     0.007 A 
ATOM     27  F   UNL     1     140.525  93.946 133.088  1.00  0.00    -0.206 F 
BRANCH  22  28
ATOM     28  O   UNL     1     142.499  98.036 131.728  1.00  0.00    -0.496 OA
ATOM     29  C   UNL     1     143.747  98.548 132.177  1.00  0.00     0.278 C 
ENDBRANCH  22  28
ENDBRANCH  10  21
TORSDOF 6
ENDMDL
MODEL 6
REMARK VINA RESULT:    -6.623      2.966      4.945
REMARK INTER + INTRA:          -9.872
REMARK INTER:                  -8.804
REMARK INTRA:                  -1.068
REMARK UNBOUND:                -1.119
REMARK SMILES CCCNC(=O)c1nnc2c(-c3c(F)cccc3OC)cccc2c1N
REMARK SMILES IDX 7 1 8 2 9 3 10 4 24 5 25 6 23 7 22 8 21 9 11 10 5 11 4 12
REMARK SMILES IDX 6 13 3 15 2 16 1 17 26 18 12 21 18 22 13 23 17 24 15 25
REMARK SMILES IDX 16 26 14 27 19 28 20 29
REMARK H PARENT 4 14 26 19 26 20
ROOT
ATOM      1  C   UNL     1     143.936  95.776 135.685  1.00  0.00     0.174 A 
ATOM      2  N   UNL     1     143.172  95.665 134.575  1.00  0.00    -0.142 NA
ATOM      3  N   UNL     1     141.949  96.273 134.541  1.00  0.00    -0.149 NA
ATOM      4  C   UNL     1     141.467  96.959 135.598  1.00  0.00     0.103 A 
ATOM      5  C   UNL     1     142.238  97.083 136.778  1.00  0.00     0.028 A 
ATOM      6  C   UNL     1     143.536  96.508 136.809  1.00  0.00     0.075 A 
ATOM      7  C   UNL     1     141.678  97.769 137.884  1.00  0.00     0.013 A 
ATOM      8  C   UNL     1     140.412  98.341 137.823  1.00  0.00     0.002 A 
ATOM      9  C   UNL     1     139.672  98.235 136.656  1.00  0.00     0.011 A 
ATOM     10  C   UNL     1     140.188  97.547 135.543  1.00  0.00     0.017 A 
ENDROOT
BRANCH   1  11
ATOM     11  C   UNL     1     145.272  95.101 135.594  1.00  0.00     0.273 C 
ATOM     12  N   UNL     1     145.230  93.762 135.252  1.00  0.00    -0.351 N 
ATOM     13  O   UNL     1     146.317  95.712 135.799  1.00  0.00    -0.267 OA
ATOM     14  H   UNL     1     144.313  93.349 135.100  1.00  0.00     0.163 HD
BRANCH  12  15
ATOM     15  C   UNL     1     146.409  92.933 135.141  1.00  0.00     0.116 C 
BRANCH  15  16
ATOM     16  C   UNL     1     146.414  91.791 136.155  1.00  0.00     0.018 C 
ATOM     17  C   UNL     1     145.665  90.558 135.671  1.00  0.00     0.006 C 
ENDBRANCH  15  16
ENDBRANCH  12  15
ENDBRANCH   1  11
BRANCH   6  18
ATOM     18  N   UNL     1     144.306  96.532 138.004  1.00  0.00    -0.396 N 
ATOM     19  H   UNL     1     145.231  96.956 137.853  1.00  0.00     0.156 HD
ATOM     20  H   UNL     1     143.832  96.961 138.792  1.00  0.00     0.156 HD
ENDBRANCH   6  18
BRANCH  10  21
ATOM     21  C   UNL     1     139.364  97.451 134.323  1.00  0.00     0.062 A 
ATOM     22  C   UNL     1     139.347  98.475 133.352  1.00  0.00     0.129 A 
ATOM     23  C   UNL     1     138.560  96.321 134.113  1.00  0.00     0.134 A 
ATOM     24  C   UNL     1     138.543  98.341 132.210  1.00  0.00     0.047 A 
ATOM     25  C   UNL     1     137.759  96.193 132.982  1.00  0.00     0.040 A 
ATOM     26  C   UNL     1     137.751  97.203 132.029  1.00  0.00     0.007 A 
ATOM     27  F   UNL     1     138.555  95.322 135.010  1.00  0.00    -0.206 F 
BRANCH  22  28
ATOM     28  O   UNL     1     140.159  99.554 133.600  1.00  0.00    -0.496 OA
ATOM     29  C   UNL     1     139.593 100.848 133.439  1.00  0.00     0.278 C 
ENDBRANCH  22  28
ENDBRANCH  10  21
TORSDOF 6
ENDMDL
MODEL 7
REMARK VINA RESULT:    -6.589      2.107      2.607
REMARK INTER + INTRA:          -9.827
REMARK INTER:                  -9.096
REMARK INTRA:                  -0.730
REMARK UNBOUND:                -1.119
REMARK SMILES CCCNC(=O)c1nnc2c(-c3c(F)cccc3OC)cccc2c1N
REMARK SMILES IDX 7 1 8 2 9 3 10 4 24 5 25 6 23 7 22 8 21 9 11 10 5 11 4 12
REMARK SMILES IDX 6 13 3 15 2 16 1 17 26 18 12 21 18 22 13 23 17 24 15 25
REMARK SMILES IDX 16 26 14 27 19 28 20 29
REMARK H PARENT 4 14 26 19 26 20
ROOT
ATOM      1  C   UNL     1     141.743  96.913 139.169  1.00  0.00     0.174 A 
ATOM      2  N   UNL     1     141.047  97.928 138.611  1.00  0.00    -0.142 NA
ATOM      3  N   UNL     1     140.876  97.957 137.256  1.00  0.00    -0.149 NA
ATOM      4  C   UNL     1     141.410  97.014 136.452  1.00  0.00     0.103 A 
ATOM      5  C   UNL     1     142.155  95.946 137.006  1.00  0.00     0.028 A 
ATOM      6  C   UNL     1     142.291  95.867 138.418  1.00  0.00     0.075 A 
ATOM      7  C   UNL     1     142.741  95.002 136.127  1.00  0.00     0.013 A 
ATOM      8  C   UNL     1     142.577  95.089 134.748  1.00  0.00     0.002 A 
ATOM      9  C   UNL     1     141.826  96.125 134.215  1.00  0.00     0.011 A 
ATOM     10  C   UNL     1     141.243  97.090 135.056  1.00  0.00     0.017 A 
ENDROOT
BRANCH   1  11
ATOM     11  C   UNL     1     141.833  96.965 140.666  1.00  0.00     0.273 C 
ATOM     12  N   UNL     1     143.061  97.356 141.166  1.00  0.00    -0.351 N 
ATOM     13  O   UNL     1     140.872  96.689 141.378  1.00  0.00    -0.267 OA
ATOM     14  H   UNL     1     143.793  97.565 140.491  1.00  0.00     0.163 HD
BRANCH  12  15
ATOM     15  C   UNL     1     143.353  97.441 142.580  1.00  0.00     0.116 C 
BRANCH  15  16
ATOM     16  C   UNL     1     144.266  98.619 142.914  1.00  0.00     0.018 C 
ATOM     17  C   UNL     1     143.791  99.421 144.117  1.00  0.00     0.006 C 
ENDBRANCH  15  16
ENDBRANCH  12  15
ENDBRANCH   1  11
BRANCH   6  18
ATOM     18  N   UNL     1     143.105  94.862 139.007  1.00  0.00    -0.396 N 
ATOM     19  H   UNL     1     143.498  94.226 138.300  1.00  0.00     0.156 HD
ATOM     20  H   UNL     1     143.832  95.225 139.616  1.00  0.00     0.156 HD
ENDBRANCH   6  18
BRANCH  10  21
ATOM     21  C   UNL     1     140.460  98.182 134.447  1.00  0.00     0.062 A 
ATOM     22  C   UNL     1     141.061  99.392 134.038  1.00  0.00     0.129 A 
ATOM     23  C   UNL     1     139.076  98.034 134.274  1.00  0.00     0.134 A 
ATOM     24  C   UNL     1     140.274 100.404 133.468  1.00  0.00     0.047 A 
ATOM     25  C   UNL     1     138.296  99.042 133.714  1.00  0.00     0.040 A 
ATOM     26  C   UNL     1     138.896 100.228 133.310  1.00  0.00     0.007 A 
ATOM     27  F   UNL     1     138.469  96.895 134.643  1.00  0.00    -0.206 F 
BRANCH  22  28
ATOM     28  O   UNL     1     142.419  99.482 134.219  1.00  0.00    -0.496 OA
ATOM     29  C   UNL     1     143.244  99.276 133.081  1.00  0.00     0.278 C 
ENDBRANCH  22  28
ENDBRANCH  10  21
TORSDOF 6
ENDMDL
MODEL 8
REMARK VINA RESULT:    -6.563      2.145      2.910
REMARK INTER + INTRA:          -9.793
REMARK INTER:                  -8.773
REMARK INTRA:                  -1.020
REMARK UNBOUND:                -1.119
REMARK SMILES CCCNC(=O)c1nnc2c(-c3c(F)cccc3OC)cccc2c1N
REMARK SMILES IDX 7 1 8 2 9 3 10 4 24 5 25 6 23 7 22 8 21 9 11 10 5 11 4 12
REMARK SMILES IDX 6 13 3 15 2 16 1 17 26 18 12 21 18 22 13 23 17 24 15 25
REMARK SMILES IDX 16 26 14 27 19 28 20 29
REMARK H PARENT 4 14 26 19 26 20
ROOT
ATOM      1  C   UNL     1     142.837  96.384 136.102  1.00  0.00     0.174 A 
ATOM      2  N   UNL     1     141.532  96.585 135.812  1.00  0.00    -0.142 NA
ATOM      3  N   UNL     1     141.141  96.662 134.505  1.00  0.00    -0.149 NA
ATOM      4  C   UNL     1     142.027  96.573 133.492  1.00  0.00     0.103 A 
ATOM      5  C   UNL     1     143.402  96.376 133.764  1.00  0.00     0.028 A 
ATOM      6  C   UNL     1     143.818  96.233 135.115  1.00  0.00     0.075 A 
ATOM      7  C   UNL     1     144.309  96.337 132.676  1.00  0.00     0.013 A 
ATOM      8  C   UNL     1     143.875  96.459 131.360  1.00  0.00     0.002 A 
ATOM      9  C   UNL     1     142.525  96.629 131.101  1.00  0.00     0.011 A 
ATOM     10  C   UNL     1     141.597  96.689 132.156  1.00  0.00     0.017 A 
ENDROOT
BRANCH   1  11
ATOM     11  C   UNL     1     143.142  96.278 137.567  1.00  0.00     0.273 C 
ATOM     12  N   UNL     1     142.123  95.758 138.342  1.00  0.00    -0.351 N 
ATOM     13  O   UNL     1     144.229  96.623 138.024  1.00  0.00    -0.267 OA
ATOM     14  H   UNL     1     141.262  95.500 137.866  1.00  0.00     0.163 HD
BRANCH  12  15
ATOM     15  C   UNL     1     142.216  95.602 139.777  1.00  0.00     0.116 C 
BRANCH  15  16
ATOM     16  C   UNL     1     141.697  96.827 140.527  1.00  0.00     0.018 C 
ATOM     17  C   UNL     1     141.383  96.543 141.989  1.00  0.00     0.006 C 
ENDBRANCH  15  16
ENDBRANCH  12  15
ENDBRANCH   1  11
BRANCH   6  18
ATOM     18  N   UNL     1     145.198  96.124 135.436  1.00  0.00    -0.396 N 
ATOM     19  H   UNL     1     145.476  95.145 135.594  1.00  0.00     0.156 HD
ATOM     20  H   UNL     1     145.814  96.575 134.767  1.00  0.00     0.156 HD
ENDBRANCH   6  18
BRANCH  10  21
ATOM     21  C   UNL     1     140.170  96.880 131.836  1.00  0.00     0.062 A 
ATOM     22  C   UNL     1     139.630  98.157 131.567  1.00  0.00     0.129 A 
ATOM     23  C   UNL     1     139.307  95.774 131.808  1.00  0.00     0.134 A 
ATOM     24  C   UNL     1     138.265  98.290 131.272  1.00  0.00     0.047 A 
ATOM     25  C   UNL     1     137.952  95.910 131.521  1.00  0.00     0.040 A 
ATOM     26  C   UNL     1     137.430  97.169 131.252  1.00  0.00     0.007 A 
ATOM     27  F   UNL     1     139.784  94.543 132.051  1.00  0.00    -0.206 F 
BRANCH  22  28
ATOM     28  O   UNL     1     140.517  99.205 131.597  1.00  0.00    -0.496 OA
ATOM     29  C   UNL     1     140.330 100.190 132.604  1.00  0.00     0.278 C 
ENDBRANCH  22  28
ENDBRANCH  10  21
TORSDOF 6
ENDMDL
MODEL 9
REMARK VINA RESULT:    -6.549      3.840      6.170
REMARK INTER + INTRA:          -9.774
REMARK INTER:                  -8.712
REMARK INTRA:                  -1.062
REMARK UNBOUND:                -1.119
REMARK SMILES CCCNC(=O)c1nnc2c(-c3c(F)cccc3OC)cccc2c1N
REMARK SMILES IDX 7 1 8 2 9 3 10 4 24 5 25 6 23 7 22 8 21 9 11 10 5 11 4 12
REMARK SMILES IDX 6 13 3 15 2 16 1 17 26 18 12 21 18 22 13 23 17 24 15 25
REMARK SMILES IDX 16 26 14 27 19 28 20 29
REMARK H PARENT 4 14 26 19 26 20
ROOT
ATOM      1  C   UNL     1     142.933  96.175 137.920  1.00  0.00     0.174 A 
ATOM      2  N   UNL     1     144.276  96.170 138.075  1.00  0.00    -0.142 NA
ATOM      3  N   UNL     1     145.064  95.689 137.068  1.00  0.00    -0.149 NA
ATOM      4  C   UNL     1     144.537  95.189 135.931  1.00  0.00     0.103 A 
ATOM      5  C   UNL     1     143.135  95.169 135.745  1.00  0.00     0.028 A 
ATOM      6  C   UNL     1     142.303  95.720 136.756  1.00  0.00     0.075 A 
ATOM      7  C   UNL     1     142.617  94.592 134.559  1.00  0.00     0.013 A 
ATOM      8  C   UNL     1     143.452  94.075 133.574  1.00  0.00     0.002 A 
ATOM      9  C   UNL     1     144.825  94.119 133.754  1.00  0.00     0.011 A 
ATOM     10  C   UNL     1     145.375  94.670 134.925  1.00  0.00     0.017 A 
ENDROOT
BRANCH   1  11
ATOM     11  C   UNL     1     142.174  96.761 139.073  1.00  0.00     0.273 C 
ATOM     12  N   UNL     1     142.615  96.372 140.324  1.00  0.00    -0.351 N 
ATOM     13  O   UNL     1     141.239  97.538 138.899  1.00  0.00    -0.267 OA
ATOM     14  H   UNL     1     143.399  95.726 140.360  1.00  0.00     0.163 HD
BRANCH  12  15
ATOM     15  C   UNL     1     141.995  96.807 141.556  1.00  0.00     0.116 C 
BRANCH  15  16
ATOM     16  C   UNL     1     142.976  97.537 142.472  1.00  0.00     0.018 C 
ATOM     17  C   UNL     1     142.290  98.286 143.606  1.00  0.00     0.006 C 
ENDBRANCH  15  16
ENDBRANCH  12  15
ENDBRANCH   1  11
BRANCH   6  18
ATOM     18  N   UNL     1     140.888  95.639 136.649  1.00  0.00    -0.396 N 
ATOM     19  H   UNL     1     140.421  95.971 137.504  1.00  0.00     0.156 HD
ATOM     20  H   UNL     1     140.510  96.096 135.826  1.00  0.00     0.156 HD
ENDBRANCH   6  18
BRANCH  10  21
ATOM     21  C   UNL     1     146.842  94.689 135.080  1.00  0.00     0.062 A 
ATOM     22  C   UNL     1     147.635  95.725 134.542  1.00  0.00     0.129 A 
ATOM     23  C   UNL     1     147.484  93.648 135.767  1.00  0.00     0.134 A 
ATOM     24  C   UNL     1     149.028  95.697 134.711  1.00  0.00     0.047 A 
ATOM     25  C   UNL     1     148.866  93.620 135.928  1.00  0.00     0.040 A 
ATOM     26  C   UNL     1     149.639  94.646 135.400  1.00  0.00     0.007 A 
ATOM     27  F   UNL     1     146.763  92.649 136.300  1.00  0.00    -0.206 F 
BRANCH  22  28
ATOM     28  O   UNL     1     146.959  96.725 133.887  1.00  0.00    -0.496 OA
ATOM     29  C   UNL     1     147.185  96.860 132.491  1.00  0.00     0.278 C 
ENDBRANCH  22  28
ENDBRANCH  10  21
TORSDOF 6
ENDMDL
MODEL 10
REMARK VINA RESULT:    -6.496      2.871      5.211
REMARK INTER + INTRA:          -9.704
REMARK INTER:                  -8.620
REMARK INTRA:                  -1.084
REMARK UNBOUND:                -1.119
REMARK SMILES CCCNC(=O)c1nnc2c(-c3c(F)cccc3OC)cccc2c1N
REMARK SMILES IDX 7 1 8 2 9 3 10 4 24 5 25 6 23 7 22 8 21 9 11 10 5 11 4 12
REMARK SMILES IDX 6 13 3 15 2 16 1 17 26 18 12 21 18 22 13 23 17 24 15 25
REMARK SMILES IDX 16 26 14 27 19 28 20 29
REMARK H PARENT 4 14 26 19 26 20
ROOT
ATOM      1  C   UNL     1     144.115  95.911 135.635  1.00  0.00     0.174 A 
ATOM      2  N   UNL     1     143.371  95.764 134.516  1.00  0.00    -0.142 NA
ATOM      3  N   UNL     1     142.123  96.318 134.465  1.00  0.00    -0.149 NA
ATOM      4  C   UNL     1     141.598  96.984 135.515  1.00  0.00     0.103 A 
ATOM      5  C   UNL     1     142.348  97.144 136.704  1.00  0.00     0.028 A 
ATOM      6  C   UNL     1     143.670  96.627 136.752  1.00  0.00     0.075 A 
ATOM      7  C   UNL     1     141.745  97.808 137.801  1.00  0.00     0.013 A 
ATOM      8  C   UNL     1     140.456  98.323 137.723  1.00  0.00     0.002 A 
ATOM      9  C   UNL     1     139.736  98.183 136.547  1.00  0.00     0.011 A 
ATOM     10  C   UNL     1     140.296  97.516 135.443  1.00  0.00     0.017 A 
ENDROOT
BRANCH   1  11
ATOM     11  C   UNL     1     145.481  95.295 135.562  1.00  0.00     0.273 C 
ATOM     12  N   UNL     1     146.322  95.845 134.614  1.00  0.00    -0.351 N 
ATOM     13  O   UNL     1     145.813  94.376 136.307  1.00  0.00    -0.267 OA
ATOM     14  H   UNL     1     145.952  96.604 134.048  1.00  0.00     0.163 HD
BRANCH  12  15
ATOM     15  C   UNL     1     147.667  95.370 134.373  1.00  0.00     0.116 C 
BRANCH  15  16
ATOM     16  C   UNL     1     148.587  96.473 133.854  1.00  0.00     0.018 C 
ATOM     17  C   UNL     1     147.957  97.307 132.747  1.00  0.00     0.006 C 
ENDBRANCH  15  16
ENDBRANCH  12  15
ENDBRANCH   1  11
BRANCH   6  18
ATOM     18  N   UNL     1     144.423  96.687 137.956  1.00  0.00    -0.396 N 
ATOM     19  H   UNL     1     144.141  97.484 138.543  1.00  0.00     0.156 HD
ATOM     20  H   UNL     1     144.421  95.823 138.488  1.00  0.00     0.156 HD
ENDBRANCH   6  18
BRANCH  10  21
ATOM     21  C   UNL     1     139.492  97.380 134.213  1.00  0.00     0.062 A 
ATOM     22  C   UNL     1     139.517  98.357 133.195  1.00  0.00     0.129 A 
ATOM     23  C   UNL     1     138.664  96.261 134.041  1.00  0.00     0.134 A 
ATOM     24  C   UNL     1     138.731  98.187 132.045  1.00  0.00     0.047 A 
ATOM     25  C   UNL     1     137.880  96.098 132.903  1.00  0.00     0.040 A 
ATOM     26  C   UNL     1     137.915  97.062 131.903  1.00  0.00     0.007 A 
ATOM     27  F   UNL     1     138.619  95.307 134.984  1.00  0.00    -0.206 F 
BRANCH  22  28
ATOM     28  O   UNL     1     140.351  99.428 133.406  1.00  0.00    -0.496 OA
ATOM     29  C   UNL     1     139.771 100.725 133.364  1.00  0.00     0.278 C 
ENDBRANCH  22  28
ENDBRANCH  10  21
TORSDOF 6
ENDMDL
MODEL 11
REMARK VINA RESULT:    -6.448      3.919      6.418
REMARK INTER + INTRA:          -9.641
REMARK INTER:                  -9.124
REMARK INTRA:                  -0.517
REMARK UNBOUND:                -1.119
REMARK SMILES CCCNC(=O)c1nnc2c(-c3c(F)cccc3OC)cccc2c1N
REMARK SMILES IDX 7 1 8 2 9 3 10 4 24 5 25 6 23 7 22 8 21 9 11 10 5 11 4 12
REMARK SMILES IDX 6 13 3 15 2 16 1 17 26 18 12 21 18 22 13 23 17 24 15 25
REMARK SMILES IDX 16 26 14 27 19 28 20 29
REMARK H PARENT 4 14 26 19 26 20
ROOT
ATOM      1  C   UNL     1     145.103  98.651 142.413  1.00  0.00     0.174 A 
ATOM      2  N   UNL     1     145.383  98.622 141.091  1.00  0.00    -0.142 NA
ATOM      3  N   UNL     1     144.473  98.086 140.225  1.00  0.00    -0.149 NA
ATOM      4  C   UNL     1     143.310  97.554 140.656  1.00  0.00     0.103 A 
ATOM      5  C   UNL     1     142.993  97.559 142.036  1.00  0.00     0.028 A 
ATOM      6  C   UNL     1     143.902  98.167 142.943  1.00  0.00     0.075 A 
ATOM      7  C   UNL     1     141.786  96.949 142.455  1.00  0.00     0.013 A 
ATOM      8  C   UNL     1     140.903  96.377 141.546  1.00  0.00     0.002 A 
ATOM      9  C   UNL     1     141.208  96.397 140.194  1.00  0.00     0.011 A 
ATOM     10  C   UNL     1     142.406  96.980 139.742  1.00  0.00     0.017 A 
ENDROOT
BRANCH   1  11
ATOM     11  C   UNL     1     146.158  99.297 143.261  1.00  0.00     0.273 C 
ATOM     12  N   UNL     1     145.967 100.643 143.510  1.00  0.00    -0.351 N 
ATOM     13  O   UNL     1     147.108  98.657 143.704  1.00  0.00    -0.267 OA
ATOM     14  H   UNL     1     145.146 101.080 143.098  1.00  0.00     0.163 HD
BRANCH  12  15
ATOM     15  C   UNL     1     146.888 101.447 144.283  1.00  0.00     0.116 C 
BRANCH  15  16
ATOM     16  C   UNL     1     148.145 101.808 143.495  1.00  0.00     0.018 C 
ATOM     17  C   UNL     1     148.528 103.276 143.619  1.00  0.00     0.006 C 
ENDBRANCH  15  16
ENDBRANCH  12  15
ENDBRANCH   1  11
BRANCH   6  18
ATOM     18  N   UNL     1     143.665  98.113 144.343  1.00  0.00    -0.396 N 
ATOM     19  H   UNL     1     144.173  97.335 144.787  1.00  0.00     0.156 HD
ATOM     20  H   UNL     1     143.843  98.988 144.826  1.00  0.00     0.156 HD
ENDBRANCH   6  18
BRANCH  10  21
ATOM     21  C   UNL     1     142.697  96.972 138.296  1.00  0.00     0.062 A 
ATOM     22  C   UNL     1     141.992  97.792 137.389  1.00  0.00     0.129 A 
ATOM     23  C   UNL     1     143.692  96.121 137.790  1.00  0.00     0.134 A 
ATOM     24  C   UNL     1     142.301  97.746 136.021  1.00  0.00     0.047 A 
ATOM     25  C   UNL     1     143.992  96.073 136.432  1.00  0.00     0.040 A 
ATOM     26  C   UNL     1     143.297  96.887 135.546  1.00  0.00     0.007 A 
ATOM     27  F   UNL     1     144.389  95.332 138.622  1.00  0.00    -0.206 F 
BRANCH  22  28
ATOM     28  O   UNL     1     141.037  98.613 137.935  1.00  0.00    -0.496 OA
ATOM     29  C   UNL     1     139.699  98.446 137.486  1.00  0.00     0.278 C 
ENDBRANCH  22  28
ENDBRANCH  10  21
TORSDOF 6
ENDMDL
MODEL 12
REMARK VINA RESULT:    -6.336      1.508      1.824
REMARK INTER + INTRA:          -9.493
REMARK INTER:                  -8.441
REMARK INTRA:                  -1.052
REMARK UNBOUND:                -1.119
REMARK SMILES CCCNC(=O)c1nnc2c(-c3c(F)cccc3OC)cccc2c1N
REMARK SMILES IDX 7 1 8 2 9 3 10 4 24 5 25 6 23 7 22 8 21 9 11 10 5 11 4 12
REMARK SMILES IDX 6 13 3 15 2 16 1 17 26 18 12 21 18 22 13 23 17 24 15 25
REMARK SMILES IDX 16 26 14 27 19 28 20 29
REMARK H PARENT 4 14 26 19 26 20
ROOT
ATOM      1  C   UNL     1     142.935  96.563 136.415  1.00  0.00     0.174 A 
ATOM      2  N   UNL     1     141.668  96.912 136.101  1.00  0.00    -0.142 NA
ATOM      3  N   UNL     1     141.322  97.066 134.788  1.00  0.00    -0.149 NA
ATOM      4  C   UNL     1     142.221  96.910 133.794  1.00  0.00     0.103 A 
ATOM      5  C   UNL     1     143.558  96.558 134.092  1.00  0.00     0.028 A 
ATOM      6  C   UNL     1     143.920  96.334 135.447  1.00  0.00     0.075 A 
ATOM      7  C   UNL     1     144.484  96.450 133.025  1.00  0.00     0.013 A 
ATOM      8  C   UNL     1     144.102  96.655 131.704  1.00  0.00     0.002 A 
ATOM      9  C   UNL     1     142.785  96.977 131.418  1.00  0.00     0.011 A 
ATOM     10  C   UNL     1     141.841  97.108 132.452  1.00  0.00     0.017 A 
ENDROOT
BRANCH   1  11
ATOM     11  C   UNL     1     143.188  96.385 137.883  1.00  0.00     0.273 C 
ATOM     12  N   UNL     1     142.137  95.841 138.597  1.00  0.00    -0.351 N 
ATOM     13  O   UNL     1     144.262  96.694 138.393  1.00  0.00    -0.267 OA
ATOM     14  H   UNL     1     141.290  95.618 138.080  1.00  0.00     0.163 HD
BRANCH  12  15
ATOM     15  C   UNL     1     142.178  95.618 140.025  1.00  0.00     0.116 C 
BRANCH  15  16
ATOM     16  C   UNL     1     141.811  96.870 140.819  1.00  0.00     0.018 C 
ATOM     17  C   UNL     1     141.041  96.564 142.096  1.00  0.00     0.006 C 
ENDBRANCH  15  16
ENDBRANCH  12  15
ENDBRANCH   1  11
BRANCH   6  18
ATOM     18  N   UNL     1     145.271  96.067 135.797  1.00  0.00    -0.396 N 
ATOM     19  H   UNL     1     145.790  95.638 135.018  1.00  0.00     0.156 HD
ATOM     20  H   UNL     1     145.768  96.871 136.168  1.00  0.00     0.156 HD
ENDBRANCH   6  18
BRANCH  10  21
ATOM     21  C   UNL     1     140.452  97.461 132.104  1.00  0.00     0.062 A 
ATOM     22  C   UNL     1     139.467  96.476 131.875  1.00  0.00     0.129 A 
ATOM     23  C   UNL     1     140.085  98.810 131.982  1.00  0.00     0.134 A 
ATOM     24  C   UNL     1     138.160  96.861 131.542  1.00  0.00     0.047 A 
ATOM     25  C   UNL     1     138.789  99.189 131.645  1.00  0.00     0.040 A 
ATOM     26  C   UNL     1     137.824  98.213 131.426  1.00  0.00     0.007 A 
ATOM     27  F   UNL     1     140.991  99.776 132.200  1.00  0.00    -0.206 F 
BRANCH  22  28
ATOM     28  O   UNL     1     139.874  95.172 132.018  1.00  0.00    -0.496 OA
ATOM     29  C   UNL     1     139.950  94.380 130.840  1.00  0.00     0.278 C 
ENDBRANCH  22  28
ENDBRANCH  10  21
TORSDOF 6
ENDMDL
MODEL 13
REMARK VINA RESULT:    -6.284      2.497      4.491
REMARK INTER + INTRA:          -9.423
REMARK INTER:                  -8.328
REMARK INTRA:                  -1.095
REMARK UNBOUND:                -1.119
REMARK SMILES CCCNC(=O)c1nnc2c(-c3c(F)cccc3OC)cccc2c1N
REMARK SMILES IDX 7 1 8 2 9 3 10 4 24 5 25 6 23 7 22 8 21 9 11 10 5 11 4 12
REMARK SMILES IDX 6 13 3 15 2 16 1 17 26 18 12 21 18 22 13 23 17 24 15 25
REMARK SMILES IDX 16 26 14 27 19 28 20 29
REMARK H PARENT 4 14 26 19 26 20
ROOT
ATOM      1  C   UNL     1     143.931  96.050 135.932  1.00  0.00     0.174 A 
ATOM      2  N   UNL     1     143.508  96.260 134.666  1.00  0.00    -0.142 NA
ATOM      3  N   UNL     1     142.360  96.969 134.453  1.00  0.00    -0.149 NA
ATOM      4  C   UNL     1     141.617  97.443 135.475  1.00  0.00     0.103 A 
ATOM      5  C   UNL     1     142.028  97.229 136.812  1.00  0.00     0.028 A 
ATOM      6  C   UNL     1     143.251  96.545 137.051  1.00  0.00     0.075 A 
ATOM      7  C   UNL     1     141.198  97.699 137.859  1.00  0.00     0.013 A 
ATOM      8  C   UNL     1     140.015  98.383 137.601  1.00  0.00     0.002 A 
ATOM      9  C   UNL     1     139.631  98.609 136.289  1.00  0.00     0.011 A 
ATOM     10  C   UNL     1     140.422  98.143 135.223  1.00  0.00     0.017 A 
ENDROOT
BRANCH   1  11
ATOM     11  C   UNL     1     145.221  95.293 136.042  1.00  0.00     0.273 C 
ATOM     12  N   UNL     1     145.270  94.111 135.328  1.00  0.00    -0.351 N 
ATOM     13  O   UNL     1     146.160  95.715 136.714  1.00  0.00    -0.267 OA
ATOM     14  H   UNL     1     144.440  93.851 134.802  1.00  0.00     0.163 HD
BRANCH  12  15
ATOM     15  C   UNL     1     146.416  93.228 135.329  1.00  0.00     0.116 C 
BRANCH  15  16
ATOM     16  C   UNL     1     146.015  91.758 135.431  1.00  0.00     0.018 C 
ATOM     17  C   UNL     1     144.786  91.415 134.602  1.00  0.00     0.006 C 
ENDBRANCH  15  16
ENDBRANCH  12  15
ENDBRANCH   1  11
BRANCH   6  18
ATOM     18  N   UNL     1     143.653  96.232 138.377  1.00  0.00    -0.396 N 
ATOM     19  H   UNL     1     142.847  96.013 138.978  1.00  0.00     0.156 HD
ATOM     20  H   UNL     1     144.359  95.504 138.433  1.00  0.00     0.156 HD
ENDBRANCH   6  18
BRANCH  10  21
ATOM     21  C   UNL     1     139.972  98.397 133.841  1.00  0.00     0.062 A 
ATOM     22  C   UNL     1     139.125  97.499 133.156  1.00  0.00     0.129 A 
ATOM     23  C   UNL     1     140.399  99.552 133.170  1.00  0.00     0.134 A 
ATOM     24  C   UNL     1     138.727  97.780 131.841  1.00  0.00     0.047 A 
ATOM     25  C   UNL     1     140.008  99.826 131.863  1.00  0.00     0.040 A 
ATOM     26  C   UNL     1     139.171  98.940 131.197  1.00  0.00     0.007 A 
ATOM     27  F   UNL     1     141.199 100.433 133.791  1.00  0.00    -0.206 F 
BRANCH  22  28
ATOM     28  O   UNL     1     138.727  96.389 133.860  1.00  0.00    -0.496 OA
ATOM     29  C   UNL     1     137.330  96.149 133.964  1.00  0.00     0.278 C 
ENDBRANCH  22  28
ENDBRANCH  10  21
TORSDOF 6
ENDMDL
MODEL 14
REMARK VINA RESULT:    -6.217      3.562      6.004
REMARK INTER + INTRA:          -9.335
REMARK INTER:                  -8.289
REMARK INTRA:                  -1.046
REMARK UNBOUND:                -1.119
REMARK SMILES CCCNC(=O)c1nnc2c(-c3c(F)cccc3OC)cccc2c1N
REMARK SMILES IDX 7 1 8 2 9 3 10 4 24 5 25 6 23 7 22 8 21 9 11 10 5 11 4 12
REMARK SMILES IDX 6 13 3 15 2 16 1 17 26 18 12 21 18 22 13 23 17 24 15 25
REMARK SMILES IDX 16 26 14 27 19 28 20 29
REMARK H PARENT 4 14 26 19 26 20
ROOT
ATOM      1  C   UNL     1     142.878  96.183 137.886  1.00  0.00     0.174 A 
ATOM      2  N   UNL     1     144.222  96.181 138.035  1.00  0.00    -0.142 NA
ATOM      3  N   UNL     1     145.006  95.700 137.026  1.00  0.00    -0.149 NA
ATOM      4  C   UNL     1     144.475  95.197 135.891  1.00  0.00     0.103 A 
ATOM      5  C   UNL     1     143.072  95.174 135.711  1.00  0.00     0.028 A 
ATOM      6  C   UNL     1     142.244  95.726 136.726  1.00  0.00     0.075 A 
ATOM      7  C   UNL     1     142.550  94.595 134.529  1.00  0.00     0.013 A 
ATOM      8  C   UNL     1     143.382  94.078 133.541  1.00  0.00     0.002 A 
ATOM      9  C   UNL     1     144.756  94.125 133.714  1.00  0.00     0.011 A 
ATOM     10  C   UNL     1     145.310  94.678 134.882  1.00  0.00     0.017 A 
ENDROOT
BRANCH   1  11
ATOM     11  C   UNL     1     142.123  96.769 139.042  1.00  0.00     0.273 C 
ATOM     12  N   UNL     1     142.571  96.384 140.291  1.00  0.00    -0.351 N 
ATOM     13  O   UNL     1     141.185  97.544 138.871  1.00  0.00    -0.267 OA
ATOM     14  H   UNL     1     143.357  95.740 140.325  1.00  0.00     0.163 HD
BRANCH  12  15
ATOM     15  C   UNL     1     141.956  96.820 141.526  1.00  0.00     0.116 C 
BRANCH  15  16
ATOM     16  C   UNL     1     142.949  97.516 142.454  1.00  0.00     0.018 C 
ATOM     17  C   UNL     1     142.274  98.325 143.552  1.00  0.00     0.006 C 
ENDBRANCH  15  16
ENDBRANCH  12  15
ENDBRANCH   1  11
BRANCH   6  18
ATOM     18  N   UNL     1     140.829  95.642 136.624  1.00  0.00    -0.396 N 
ATOM     19  H   UNL     1     140.392  95.449 137.537  1.00  0.00     0.156 HD
ATOM     20  H   UNL     1     140.399  96.445 136.176  1.00  0.00     0.156 HD
ENDBRANCH   6  18
BRANCH  10  21
ATOM     21  C   UNL     1     146.777  94.700 135.031  1.00  0.00     0.062 A 
ATOM     22  C   UNL     1     147.468  93.706 135.758  1.00  0.00     0.129 A 
ATOM     23  C   UNL     1     147.522  95.737 134.450  1.00  0.00     0.134 A 
ATOM     24  C   UNL     1     148.864  93.771 135.876  1.00  0.00     0.047 A 
ATOM     25  C   UNL     1     148.907  95.803 134.574  1.00  0.00     0.040 A 
ATOM     26  C   UNL     1     149.579  94.818 135.287  1.00  0.00     0.007 A 
ATOM     27  F   UNL     1     146.902  96.696 133.744  1.00  0.00    -0.206 F 
BRANCH  22  28
ATOM     28  O   UNL     1     146.695  92.708 136.298  1.00  0.00    -0.496 OA
ATOM     29  C   UNL     1     146.914  91.385 135.826  1.00  0.00     0.278 C 
ENDBRANCH  22  28
ENDBRANCH  10  21
TORSDOF 6
ENDMDL
MODEL 15
REMARK VINA RESULT:    -6.149      2.426      4.410
REMARK INTER + INTRA:          -9.245
REMARK INTER:                  -8.214
REMARK INTRA:                  -1.031
REMARK UNBOUND:                -1.119
REMARK SMILES CCCNC(=O)c1nnc2c(-c3c(F)cccc3OC)cccc2c1N
REMARK SMILES IDX 7 1 8 2 9 3 10 4 24 5 25 6 23 7 22 8 21 9 11 10 5 11 4 12
REMARK SMILES IDX 6 13 3 15 2 16 1 17 26 18 12 21 18 22 13 23 17 24 15 25
REMARK SMILES IDX 16 26 14 27 19 28 20 29
REMARK H PARENT 4 14 26 19 26 20
ROOT
ATOM      1  C   UNL     1     144.134  96.196 136.359  1.00  0.00     0.174 A 
ATOM      2  N   UNL     1     143.759  96.253 135.061  1.00  0.00    -0.142 NA
ATOM      3  N   UNL     1     142.581  96.862 134.731  1.00  0.00    -0.149 NA
ATOM      4  C   UNL     1     141.763  97.383 135.669  1.00  0.00     0.103 A 
ATOM      5  C   UNL     1     142.122  97.327 137.037  1.00  0.00     0.028 A 
ATOM      6  C   UNL     1     143.371  96.752 137.393  1.00  0.00     0.075 A 
ATOM      7  C   UNL     1     141.215  97.841 137.996  1.00  0.00     0.013 A 
ATOM      8  C   UNL     1     140.006  98.417 137.622  1.00  0.00     0.002 A 
ATOM      9  C   UNL     1     139.672  98.489 136.279  1.00  0.00     0.011 A 
ATOM     10  C   UNL     1     140.540  97.975 135.299  1.00  0.00     0.017 A 
ENDROOT
BRANCH   1  11
ATOM     11  C   UNL     1     145.461  95.540 136.597  1.00  0.00     0.273 C 
ATOM     12  N   UNL     1     146.360  95.639 135.552  1.00  0.00    -0.351 N 
ATOM     13  O   UNL     1     145.717  94.971 137.655  1.00  0.00    -0.267 OA
ATOM     14  H   UNL     1     146.052  96.133 134.719  1.00  0.00     0.163 HD
BRANCH  12  15
ATOM     15  C   UNL     1     147.680  95.049 135.580  1.00  0.00     0.116 C 
BRANCH  15  16
ATOM     16  C   UNL     1     148.706  95.953 136.261  1.00  0.00     0.018 C 
ATOM     17  C   UNL     1     149.926  96.230 135.395  1.00  0.00     0.006 C 
ENDBRANCH  15  16
ENDBRANCH  12  15
ENDBRANCH   1  11
BRANCH   6  18
ATOM     18  N   UNL     1     143.729  96.595 138.759  1.00  0.00    -0.396 N 
ATOM     19  H   UNL     1     143.454  95.672 139.122  1.00  0.00     0.156 HD
ATOM     20  H   UNL     1     144.706  96.788 138.955  1.00  0.00     0.156 HD
ENDBRANCH   6  18
BRANCH  10  21
ATOM     21  C   UNL     1     140.142  98.063 133.882  1.00  0.00     0.062 A 
ATOM     22  C   UNL     1     139.509  96.991 133.217  1.00  0.00     0.129 A 
ATOM     23  C   UNL     1     140.404  99.234 133.155  1.00  0.00     0.134 A 
ATOM     24  C   UNL     1     139.153  97.120 131.866  1.00  0.00     0.047 A 
ATOM     25  C   UNL     1     140.056  99.357 131.814  1.00  0.00     0.040 A 
ATOM     26  C   UNL     1     139.429  98.299 131.168  1.00  0.00     0.007 A 
ATOM     27  F   UNL     1     140.998 100.278 133.755  1.00  0.00    -0.206 F 
BRANCH  22  28
ATOM     28  O   UNL     1     139.265  95.871 133.974  1.00  0.00    -0.496 OA
ATOM     29  C   UNL     1     139.984  94.691 133.644  1.00  0.00     0.278 C 
ENDBRANCH  22  28
ENDBRANCH  10  21
TORSDOF 6
ENDMDL
MODEL 16
REMARK VINA RESULT:    -6.143      2.244      4.450
REMARK INTER + INTRA:          -9.237
REMARK INTER:                  -8.414
REMARK INTRA:                  -0.823
REMARK UNBOUND:                -1.119
REMARK SMILES CCCNC(=O)c1nnc2c(-c3c(F)cccc3OC)cccc2c1N
REMARK SMILES IDX 7 1 8 2 9 3 10 4 24 5 25 6 23 7 22 8 21 9 11 10 5 11 4 12
REMARK SMILES IDX 6 13 3 15 2 16 1 17 26 18 12 21 18 22 13 23 17 24 15 25
REMARK SMILES IDX 16 26 14 27 19 28 20 29
REMARK H PARENT 4 14 26 19 26 20
ROOT
ATOM      1  C   UNL     1     143.414  97.074 137.859  1.00  0.00     0.174 A 
ATOM      2  N   UNL     1     144.447  96.390 137.319  1.00  0.00    -0.142 NA
ATOM      3  N   UNL     1     144.555  96.303 135.960  1.00  0.00    -0.149 NA
ATOM      4  C   UNL     1     143.639  96.858 135.138  1.00  0.00     0.103 A 
ATOM      5  C   UNL     1     142.540  97.570 135.674  1.00  0.00     0.028 A 
ATOM      6  C   UNL     1     142.446  97.721 137.084  1.00  0.00     0.075 A 
ATOM      7  C   UNL     1     141.575  98.097 134.781  1.00  0.00     0.013 A 
ATOM      8  C   UNL     1     141.699  97.953 133.404  1.00  0.00     0.002 A 
ATOM      9  C   UNL     1     142.790  97.275 132.886  1.00  0.00     0.011 A 
ATOM     10  C   UNL     1     143.761  96.724 133.742  1.00  0.00     0.017 A 
ENDROOT
BRANCH   1  11
ATOM     11  C   UNL     1     143.420  97.134 139.358  1.00  0.00     0.273 C 
ATOM     12  N   UNL     1     142.531  96.281 139.983  1.00  0.00    -0.351 N 
ATOM     13  O   UNL     1     144.177  97.885 139.969  1.00  0.00    -0.267 OA
ATOM     14  H   UNL     1     141.949  95.698 139.386  1.00  0.00     0.163 HD
BRANCH  12  15
ATOM     15  C   UNL     1     142.369  96.212 141.418  1.00  0.00     0.116 C 
BRANCH  15  16
ATOM     16  C   UNL     1     141.064  96.852 141.887  1.00  0.00     0.018 C 
ATOM     17  C   UNL     1     141.184  97.527 143.246  1.00  0.00     0.006 C 
ENDBRANCH  15  16
ENDBRANCH  12  15
ENDBRANCH   1  11
BRANCH   6  18
ATOM     18  N   UNL     1     141.312  98.351 137.666  1.00  0.00    -0.396 N 
ATOM     19  H   UNL     1     141.254  98.172 138.678  1.00  0.00     0.156 HD
ATOM     20  H   UNL     1     141.244  99.344 137.466  1.00  0.00     0.156 HD
ENDBRANCH   6  18
BRANCH  10  21
ATOM     21  C   UNL     1     144.902  96.001 133.149  1.00  0.00     0.062 A 
ATOM     22  C   UNL     1     144.858  94.612 132.902  1.00  0.00     0.129 A 
ATOM     23  C   UNL     1     146.077  96.696 132.827  1.00  0.00     0.134 A 
ATOM     24  C   UNL     1     145.970  93.967 132.341  1.00  0.00     0.047 A 
ATOM     25  C   UNL     1     147.181  96.053 132.277  1.00  0.00     0.040 A 
ATOM     26  C   UNL     1     147.128  94.686 132.032  1.00  0.00     0.007 A 
ATOM     27  F   UNL     1     146.155  98.019 133.040  1.00  0.00    -0.206 F 
BRANCH  22  28
ATOM     28  O   UNL     1     143.682  93.979 133.224  1.00  0.00    -0.496 OA
ATOM     29  C   UNL     1     143.725  92.569 133.396  1.00  0.00     0.278 C 
ENDBRANCH  22  28
ENDBRANCH  10  21
TORSDOF 6
ENDMDL
MODEL 17
REMARK VINA RESULT:    -6.095      3.366      6.020
REMARK INTER + INTRA:          -9.174
REMARK INTER:                  -8.172
REMARK INTRA:                  -1.002
REMARK UNBOUND:                -1.119
REMARK SMILES CCCNC(=O)c1nnc2c(-c3c(F)cccc3OC)cccc2c1N
REMARK SMILES IDX 7 1 8 2 9 3 10 4 24 5 25 6 23 7 22 8 21 9 11 10 5 11 4 12
REMARK SMILES IDX 6 13 3 15 2 16 1 17 26 18 12 21 18 22 13 23 17 24 15 25
REMARK SMILES IDX 16 26 14 27 19 28 20 29
REMARK H PARENT 4 14 26 19 26 20
ROOT
ATOM      1  C   UNL     1     142.974  96.652 138.299  1.00  0.00     0.174 A 
ATOM      2  N   UNL     1     143.870  95.643 138.380  1.00  0.00    -0.142 NA
ATOM      3  N   UNL     1     144.613  95.318 137.280  1.00  0.00    -0.149 NA
ATOM      4  C   UNL     1     144.456  95.958 136.102  1.00  0.00     0.103 A 
ATOM      5  C   UNL     1     143.517  97.010 135.984  1.00  0.00     0.028 A 
ATOM      6  C   UNL     1     142.779  97.401 137.133  1.00  0.00     0.075 A 
ATOM      7  C   UNL     1     143.346  97.625 134.719  1.00  0.00     0.013 A 
ATOM      8  C   UNL     1     144.094  97.239 133.612  1.00  0.00     0.002 A 
ATOM      9  C   UNL     1     145.028  96.223 133.742  1.00  0.00     0.011 A 
ATOM     10  C   UNL     1     145.214  95.578 134.978  1.00  0.00     0.017 A 
ENDROOT
BRANCH   1  11
ATOM     11  C   UNL     1     142.245  96.943 139.577  1.00  0.00     0.273 C 
ATOM     12  N   UNL     1     143.019  96.878 140.721  1.00  0.00    -0.351 N 
ATOM     13  O   UNL     1     141.051  97.229 139.586  1.00  0.00    -0.267 OA
ATOM     14  H   UNL     1     143.999  96.635 140.606  1.00  0.00     0.163 HD
BRANCH  12  15
ATOM     15  C   UNL     1     142.493  97.100 142.050  1.00  0.00     0.116 C 
BRANCH  15  16
ATOM     16  C   UNL     1     143.410  97.979 142.897  1.00  0.00     0.018 C 
ATOM     17  C   UNL     1     142.667  98.748 143.981  1.00  0.00     0.006 C 
ENDBRANCH  15  16
ENDBRANCH  12  15
ENDBRANCH   1  11
BRANCH   6  18
ATOM     18  N   UNL     1     141.764  98.390 137.035  1.00  0.00    -0.396 N 
ATOM     19  H   UNL     1     140.868  98.056 137.415  1.00  0.00     0.156 HD
ATOM     20  H   UNL     1     142.020  99.286 137.439  1.00  0.00     0.156 HD
ENDBRANCH   6  18
BRANCH  10  21
ATOM     21  C   UNL     1     146.212  94.496 135.071  1.00  0.00     0.062 A 
ATOM     22  C   UNL     1     147.578  94.760 135.307  1.00  0.00     0.129 A 
ATOM     23  C   UNL     1     145.811  93.161 134.909  1.00  0.00     0.134 A 
ATOM     24  C   UNL     1     148.491  93.698 135.382  1.00  0.00     0.047 A 
ATOM     25  C   UNL     1     146.720  92.110 134.978  1.00  0.00     0.040 A 
ATOM     26  C   UNL     1     148.062  92.378 135.216  1.00  0.00     0.007 A 
ATOM     27  F   UNL     1     144.519  92.870 134.690  1.00  0.00    -0.206 F 
BRANCH  22  28
ATOM     28  O   UNL     1     147.918  96.080 135.469  1.00  0.00    -0.496 OA
ATOM     29  C   UNL     1     149.299  96.412 135.402  1.00  0.00     0.278 C 
ENDBRANCH  22  28
ENDBRANCH  10  21
TORSDOF 6
ENDMDL
MODEL 18
REMARK VINA RESULT:    -6.058      1.814      2.215
REMARK INTER + INTRA:          -9.125
REMARK INTER:                  -8.166
REMARK INTRA:                  -0.959
REMARK UNBOUND:                -1.119
REMARK SMILES CCCNC(=O)c1nnc2c(-c3c(F)cccc3OC)cccc2c1N
REMARK SMILES IDX 7 1 8 2 9 3 10 4 24 5 25 6 23 7 22 8 21 9 11 10 5 11 4 12
REMARK SMILES IDX 6 13 3 15 2 16 1 17 26 18 12 21 18 22 13 23 17 24 15 25
REMARK SMILES IDX 16 26 14 27 19 28 20 29
REMARK H PARENT 4 14 26 19 26 20
ROOT
ATOM      1  C   UNL     1     141.852  96.631 137.573  1.00  0.00     0.174 A 
ATOM      2  N   UNL     1     140.850  95.998 136.924  1.00  0.00    -0.142 NA
ATOM      3  N   UNL     1     140.569  96.339 135.631  1.00  0.00    -0.149 NA
ATOM      4  C   UNL     1     141.247  97.314 134.990  1.00  0.00     0.103 A 
ATOM      5  C   UNL     1     142.293  98.003 135.647  1.00  0.00     0.028 A 
ATOM      6  C   UNL     1     142.638  97.620 136.971  1.00  0.00     0.075 A 
ATOM      7  C   UNL     1     142.949  99.053 134.959  1.00  0.00     0.013 A 
ATOM      8  C   UNL     1     142.607  99.397 133.656  1.00  0.00     0.002 A 
ATOM      9  C   UNL     1     141.596  98.702 133.011  1.00  0.00     0.011 A 
ATOM     10  C   UNL     1     140.911  97.665 133.668  1.00  0.00     0.017 A 
ENDROOT
BRANCH   1  11
ATOM     11  C   UNL     1     142.094  96.147 138.972  1.00  0.00     0.273 C 
ATOM     12  N   UNL     1     141.372  96.802 139.951  1.00  0.00    -0.351 N 
ATOM     13  O   UNL     1     142.872  95.227 139.209  1.00  0.00    -0.267 OA
ATOM     14  H   UNL     1     140.752  97.550 139.650  1.00  0.00     0.163 HD
BRANCH  12  15
ATOM     15  C   UNL     1     141.487  96.499 141.361  1.00  0.00     0.116 C 
BRANCH  15  16
ATOM     16  C   UNL     1     142.617  97.278 142.031  1.00  0.00     0.018 C 
ATOM     17  C   UNL     1     142.171  98.018 143.284  1.00  0.00     0.006 C 
ENDBRANCH  15  16
ENDBRANCH  12  15
ENDBRANCH   1  11
BRANCH   6  18
ATOM     18  N   UNL     1     143.621  98.345 137.697  1.00  0.00    -0.396 N 
ATOM     19  H   UNL     1     143.708  98.006 138.666  1.00  0.00     0.156 HD
ATOM     20  H   UNL     1     144.527  98.383 137.241  1.00  0.00     0.156 HD
ENDBRANCH   6  18
BRANCH  10  21
ATOM     21  C   UNL     1     139.836  96.957 132.949  1.00  0.00     0.062 A 
ATOM     22  C   UNL     1     140.094  95.819 132.154  1.00  0.00     0.129 A 
ATOM     23  C   UNL     1     138.515  97.422 133.035  1.00  0.00     0.134 A 
ATOM     24  C   UNL     1     139.039  95.182 131.484  1.00  0.00     0.047 A 
ATOM     25  C   UNL     1     137.471  96.791 132.365  1.00  0.00     0.040 A 
ATOM     26  C   UNL     1     137.733  95.669 131.589  1.00  0.00     0.007 A 
ATOM     27  F   UNL     1     138.229  98.496 133.787  1.00  0.00    -0.206 F 
BRANCH  22  28
ATOM     28  O   UNL     1     141.400  95.397 132.110  1.00  0.00    -0.496 OA
ATOM     29  C   UNL     1     141.692  94.119 132.658  1.00  0.00     0.278 C 
ENDBRANCH  22  28
ENDBRANCH  10  21
TORSDOF 6
ENDMDL
MODEL 19
REMARK VINA RESULT:    -5.878      3.603      4.700
REMARK INTER + INTRA:          -8.887
REMARK INTER:                  -7.924
REMARK INTRA:                  -0.963
REMARK UNBOUND:                -1.119
REMARK SMILES CCCNC(=O)c1nnc2c(-c3c(F)cccc3OC)cccc2c1N
REMARK SMILES IDX 7 1 8 2 9 3 10 4 24 5 25 6 23 7 22 8 21 9 11 10 5 11 4 12
REMARK SMILES IDX 6 13 3 15 2 16 1 17 26 18 12 21 18 22 13 23 17 24 15 25
REMARK SMILES IDX 16 26 14 27 19 28 20 29
REMARK H PARENT 4 14 26 19 26 20
ROOT
ATOM      1  C   UNL     1     144.661  95.552 135.767  1.00  0.00     0.174 A 
ATOM      2  N   UNL     1     144.220  96.829 135.729  1.00  0.00    -0.142 NA
ATOM      3  N   UNL     1     143.075  97.121 135.043  1.00  0.00    -0.149 NA
ATOM      4  C   UNL     1     142.386  96.173 134.374  1.00  0.00     0.103 A 
ATOM      5  C   UNL     1     142.830  94.830 134.386  1.00  0.00     0.028 A 
ATOM      6  C   UNL     1     143.985  94.498 135.144  1.00  0.00     0.075 A 
ATOM      7  C   UNL     1     142.108  93.871 133.632  1.00  0.00     0.013 A 
ATOM      8  C   UNL     1     140.968  94.217 132.913  1.00  0.00     0.002 A 
ATOM      9  C   UNL     1     140.527  95.530 132.926  1.00  0.00     0.011 A 
ATOM     10  C   UNL     1     141.227  96.512 133.649  1.00  0.00     0.017 A 
ENDROOT
BRANCH   1  11
ATOM     11  C   UNL     1     145.904  95.345 136.581  1.00  0.00     0.273 C 
ATOM     12  N   UNL     1     147.085  95.672 135.941  1.00  0.00    -0.351 N 
ATOM     13  O   UNL     1     145.856  94.927 137.735  1.00  0.00    -0.267 OA
ATOM     14  H   UNL     1     147.017  96.012 134.985  1.00  0.00     0.163 HD
BRANCH  12  15
ATOM     15  C   UNL     1     148.388  95.516 136.549  1.00  0.00     0.116 C 
BRANCH  15  16
ATOM     16  C   UNL     1     149.443  96.408 135.896  1.00  0.00     0.018 C 
ATOM     17  C   UNL     1     150.465  96.946 136.887  1.00  0.00     0.006 C 
ENDBRANCH  15  16
ENDBRANCH  12  15
ENDBRANCH   1  11
BRANCH   6  18
ATOM     18  N   UNL     1     144.515  93.179 135.109  1.00  0.00    -0.396 N 
ATOM     19  H   UNL     1     145.207  93.066 134.355  1.00  0.00     0.156 HD
ATOM     20  H   UNL     1     144.888  92.861 135.997  1.00  0.00     0.156 HD
ENDBRANCH   6  18
BRANCH  10  21
ATOM     21  C   UNL     1     140.728  97.900 133.629  1.00  0.00     0.062 A 
ATOM     22  C   UNL     1     141.216  98.854 132.710  1.00  0.00     0.129 A 
ATOM     23  C   UNL     1     139.750  98.303 134.550  1.00  0.00     0.134 A 
ATOM     24  C   UNL     1     140.714 100.164 132.732  1.00  0.00     0.047 A 
ATOM     25  C   UNL     1     139.258  99.604 134.573  1.00  0.00     0.040 A 
ATOM     26  C   UNL     1     139.740 100.536 133.663  1.00  0.00     0.007 A 
ATOM     27  F   UNL     1     139.255  97.422 135.434  1.00  0.00    -0.206 F 
BRANCH  22  28
ATOM     28  O   UNL     1     142.165  98.407 131.823  1.00  0.00    -0.496 OA
ATOM     29  C   UNL     1     143.487  98.906 131.976  1.00  0.00     0.278 C 
ENDBRANCH  22  28
ENDBRANCH  10  21
TORSDOF 6
ENDMDL
MODEL 20
REMARK VINA RESULT:    -5.807      3.087      5.183
REMARK INTER + INTRA:          -8.793
REMARK INTER:                  -7.730
REMARK INTRA:                  -1.062
REMARK UNBOUND:                -1.119
REMARK SMILES CCCNC(=O)c1nnc2c(-c3c(F)cccc3OC)cccc2c1N
REMARK SMILES IDX 7 1 8 2 9 3 10 4 24 5 25 6 23 7 22 8 21 9 11 10 5 11 4 12
REMARK SMILES IDX 6 13 3 15 2 16 1 17 26 18 12 21 18 22 13 23 17 24 15 25
REMARK SMILES IDX 16 26 14 27 19 28 20 29
REMARK H PARENT 4 14 26 19 26 20
ROOT
ATOM      1  C   UNL     1     145.326  95.137 135.277  1.00  0.00     0.174 A 
ATOM      2  N   UNL     1     144.498  95.556 134.294  1.00  0.00    -0.142 NA
ATOM      3  N   UNL     1     143.466  96.397 134.601  1.00  0.00    -0.149 NA
ATOM      4  C   UNL     1     143.231  96.799 135.868  1.00  0.00     0.103 A 
ATOM      5  C   UNL     1     144.072  96.367 136.920  1.00  0.00     0.028 A 
ATOM      6  C   UNL     1     145.186  95.541 136.609  1.00  0.00     0.075 A 
ATOM      7  C   UNL     1     143.764  96.771 138.242  1.00  0.00     0.013 A 
ATOM      8  C   UNL     1     142.680  97.596 138.520  1.00  0.00     0.002 A 
ATOM      9  C   UNL     1     141.874  98.034 137.481  1.00  0.00     0.011 A 
ATOM     10  C   UNL     1     142.139  97.641 136.157  1.00  0.00     0.017 A 
ENDROOT
BRANCH   1  11
ATOM     11  C   UNL     1     146.444  94.249 134.816  1.00  0.00     0.273 C 
ATOM     12  N   UNL     1     146.051  93.013 134.338  1.00  0.00    -0.351 N 
ATOM     13  O   UNL     1     147.615  94.616 134.856  1.00  0.00    -0.267 OA
ATOM     14  H   UNL     1     145.056  92.807 134.345  1.00  0.00     0.163 HD
BRANCH  12  15
ATOM     15  C   UNL     1     146.982  92.008 133.874  1.00  0.00     0.116 C 
BRANCH  15  16
ATOM     16  C   UNL     1     146.553  90.596 134.265  1.00  0.00     0.018 C 
ATOM     17  C   UNL     1     145.636  90.564 135.479  1.00  0.00     0.006 C 
ENDBRANCH  15  16
ENDBRANCH  12  15
ENDBRANCH   1  11
BRANCH   6  18
ATOM     18  N   UNL     1     146.002  95.013 137.646  1.00  0.00    -0.396 N 
ATOM     19  H   UNL     1     146.820  95.611 137.829  1.00  0.00     0.156 HD
ATOM     20  H   UNL     1     145.499  94.809 138.504  1.00  0.00     0.156 HD
ENDBRANCH   6  18
BRANCH  10  21
ATOM     21  C   UNL     1     141.250  98.122 135.082  1.00  0.00     0.062 A 
ATOM     22  C   UNL     1     140.024  97.488 134.789  1.00  0.00     0.129 A 
ATOM     23  C   UNL     1     141.627  99.232 134.311  1.00  0.00     0.134 A 
ATOM     24  C   UNL     1     139.214  97.979 133.754  1.00  0.00     0.047 A 
ATOM     25  C   UNL     1     140.825  99.713 133.280  1.00  0.00     0.040 A 
ATOM     26  C   UNL     1     139.616  99.086 133.002  1.00  0.00     0.007 A 
ATOM     27  F   UNL     1     142.782  99.866 134.564  1.00  0.00    -0.206 F 
BRANCH  22  28
ATOM     28  O   UNL     1     139.696  96.413 135.579  1.00  0.00    -0.496 OA
ATOM     29  C   UNL     1     139.704  95.129 134.970  1.00  0.00     0.278 C 
ENDBRANCH  22  28
ENDBRANCH  10  21
TORSDOF 6
ENDMDL
