REMARK SMILES CN1C(N)=N[C@](C)(c2cc(NC(=O)c3ccc(F)cn3)ccc2F)CS1(=O)=O
REMARK SMILES IDX 8 1 9 2 10 3 21 4 22 5 23 6 24 7 6 8 25 9 5 10 26 11 3 12
REMARK SMILES IDX 27 13 2 14 28 15 4 16 7 17 1 18 11 21 12 22 13 23 14 25
REMARK SMILES IDX 20 26 15 27 19 28 16 29 17 30 18 31
REMARK H PARENT 4 19 4 20 11 24
ROOT
ATOM      1  C   UNL     1      22.736  10.383  20.772  1.00  0.00     0.018 A 
ATOM      2  C   UNL     1      24.031  10.045  21.162  1.00  0.00     0.035 A 
ATOM      3  C   UNL     1      25.138  10.398  20.424  1.00  0.00     0.042 A 
ATOM      4  C   UNL     1      24.995  11.097  19.232  1.00  0.00     0.029 A 
ATOM      5  C   UNL     1      23.717  11.444  18.831  1.00  0.00     0.042 A 
ATOM      6  C   UNL     1      22.618  11.111  19.598  1.00  0.00     0.129 A 
ATOM      7  F   UNL     1      21.377  11.489  19.197  1.00  0.00    -0.207 F 
ENDROOT
BRANCH   1   8
ATOM      8  C   UNL     1      21.533   9.981  21.611  1.00  0.00     0.105 C 
ATOM      9  C   UNL     1      20.656  11.127  22.064  1.00  0.00     0.195 C 
ATOM     10  N   UNL     1      21.914   9.157  22.757  1.00  0.00    -0.240 NA
ATOM     11  S   UNL     1      21.552  12.213  23.145  1.00  0.00     0.239 S 
ATOM     12  C   UNL     1      22.368   9.682  23.853  1.00  0.00     0.205 C 
ATOM     13  O   UNL     1      20.570  12.832  24.017  1.00  0.00    -0.206 OA
ATOM     14  N   UNL     1      22.428  11.073  24.092  1.00  0.00    -0.243 N 
ATOM     15  O   UNL     1      22.571  12.931  22.445  1.00  0.00    -0.206 OA
ATOM     16  N   UNL     1      22.811   8.919  24.900  1.00  0.00    -0.369 N 
ATOM     17  C   UNL     1      20.650   9.038  20.789  1.00  0.00     0.044 C 
ATOM     18  C   UNL     1      23.061  11.657  25.291  1.00  0.00     0.167 C 
ATOM     19  H   UNL     1      22.808   7.937  24.829  1.00  0.00     0.159 HD
ATOM     20  H   UNL     1      23.132   9.352  25.724  1.00  0.00     0.159 HD
ENDBRANCH   1   8
BRANCH   3  21
ATOM     21  N   UNL     1      26.382   9.994  20.926  1.00  0.00    -0.321 N 
ATOM     22  C   UNL     1      27.642  10.391  20.515  1.00  0.00     0.274 C 
ATOM     23  O   UNL     1      27.877  11.083  19.533  1.00  0.00    -0.267 OA
ATOM     24  H   UNL     1      26.356   9.345  21.666  1.00  0.00     0.170 HD
BRANCH  22  25
ATOM     25  C   UNL     1      28.760   9.948  21.383  1.00  0.00     0.128 A 
ATOM     26  N   UNL     1      28.482   8.976  22.258  1.00  0.00    -0.248 NA
ATOM     27  C   UNL     1      30.009  10.530  21.252  1.00  0.00     0.037 A 
ATOM     28  C   UNL     1      29.478   8.561  23.058  1.00  0.00     0.151 A 
ATOM     29  C   UNL     1      31.016  10.077  22.086  1.00  0.00     0.043 A 
ATOM     30  C   UNL     1      30.751   9.082  23.007  1.00  0.00     0.141 A 
ATOM     31  F   UNL     1      31.699   8.604  23.831  1.00  0.00    -0.205 F 
ENDBRANCH  22  25
ENDBRANCH   3  21
TORSDOF 3
