MODEL 1
REMARK VINA RESULT:    16.604      0.000      0.000
REMARK INTER + INTRA:          22.846
REMARK INTER:                  23.399
REMARK INTRA:                  -0.553
REMARK UNBOUND:                -0.553
REMARK SMILES Cc1ccc(NC(=O)c2ccc(CN3CCN(C)CC3)cc2)cc1Nc1nc(-c2cccnc2)cs1
REMARK SMILES IDX 6 1 7 2 8 3 5 5 2 6 3 7 24 8 4 9 23 10 1 11 25 12 26 14
REMARK SMILES IDX 27 15 36 16 28 17 35 18 29 19 30 20 34 21 31 22 33 23 32 24
REMARK SMILES IDX 9 25 10 26 22 27 11 28 21 29 12 30 13 31 14 32 15 33 20 34
REMARK SMILES IDX 16 35 19 36 17 37 18 38
REMARK H PARENT 6 4 25 13
ROOT
ATOM      1  N   UNL     1      30.516  27.667  45.855  1.00  0.00    -0.322 N 
ATOM      2  C   UNL     1      30.488  28.916  46.450  1.00  0.00     0.255 C 
ATOM      3  O   UNL     1      29.963  29.212  47.516  1.00  0.00    -0.269 OA
ATOM      4  H   UNL     1      31.118  27.563  45.049  1.00  0.00     0.170 HD
ENDROOT
BRANCH   1   5
ATOM      5  C   UNL     1      29.899  26.486  46.317  1.00  0.00     0.043 A 
ATOM      6  C   UNL     1      28.781  24.120  47.380  1.00  0.00    -0.027 A 
ATOM      7  C   UNL     1      29.988  24.627  47.879  1.00  0.00     0.008 A 
ATOM      8  C   UNL     1      28.145  24.789  46.317  1.00  0.00     0.045 A 
ATOM      9  C   UNL     1      30.538  25.798  47.353  1.00  0.00     0.026 A 
ATOM     10  C   UNL     1      28.711  25.968  45.799  1.00  0.00     0.052 A 
ATOM     11  C   UNL     1      28.214  22.858  47.970  1.00  0.00     0.046 C 
BRANCH   8  12
ATOM     12  N   UNL     1      26.948  24.283  45.756  1.00  0.00    -0.331 N 
ATOM     13  H   UNL     1      26.358  23.874  46.475  1.00  0.00     0.169 HD
BRANCH  12  14
ATOM     14  C   UNL     1      26.195  24.974  44.856  1.00  0.00     0.187 A 
ATOM     15  N   UNL     1      26.206  24.663  43.577  1.00  0.00    -0.220 NA
ATOM     16  S   UNL     1      25.179  26.318  45.242  1.00  0.00    -0.105 S 
ATOM     17  C   UNL     1      25.388  25.508  42.840  1.00  0.00     0.085 A 
ATOM     18  C   UNL     1      24.741  26.466  43.593  1.00  0.00     0.097 A 
BRANCH  17  19
ATOM     19  C   UNL     1      25.264  25.349  41.395  1.00  0.00     0.019 A 
ATOM     20  C   UNL     1      24.934  24.139  40.777  1.00  0.00     0.013 A 
ATOM     21  C   UNL     1      25.468  26.444  40.555  1.00  0.00     0.121 A 
ATOM     22  C   UNL     1      24.824  24.071  39.385  1.00  0.00     0.021 A 
ATOM     23  N   UNL     1      25.369  26.408  39.200  1.00  0.00    -0.264 NA
ATOM     24  C   UNL     1      25.049  25.221  38.649  1.00  0.00     0.111 A 
ENDBRANCH  17  19
ENDBRANCH  12  14
ENDBRANCH   8  12
ENDBRANCH   1   5
BRANCH   2  25
ATOM     25  C   UNL     1      31.232  29.972  45.707  1.00  0.00     0.040 A 
ATOM     26  C   UNL     1      31.845  29.632  44.498  1.00  0.00     0.014 A 
ATOM     27  C   UNL     1      31.340  31.278  46.200  1.00  0.00     0.014 A 
ATOM     28  C   UNL     1      32.533  30.602  43.767  1.00  0.00     0.006 A 
ATOM     29  C   UNL     1      32.033  32.247  45.468  1.00  0.00     0.006 A 
ATOM     30  C   UNL     1      32.626  31.921  44.238  1.00  0.00    -0.034 A 
BRANCH  30  31
ATOM     31  C   UNL     1      33.390  32.969  43.450  1.00  0.00     0.120 C 
BRANCH  31  32
ATOM     32  N   UNL     1      34.798  33.084  43.874  1.00  0.00    -0.297 NA
ATOM     33  C   UNL     1      35.656  33.425  42.724  1.00  0.00     0.100 C 
ATOM     34  C   UNL     1      35.286  31.829  44.494  1.00  0.00     0.100 C 
ATOM     35  C   UNL     1      35.822  32.310  41.656  1.00  0.00     0.099 C 
ATOM     36  C   UNL     1      36.071  30.859  43.568  1.00  0.00     0.099 C 
ATOM     37  N   UNL     1      35.626  30.941  42.171  1.00  0.00    -0.304 NA
ATOM     38  C   UNL     1      36.295  29.956  41.329  1.00  0.00     0.105 C 
ENDBRANCH  31  32
ENDBRANCH  30  31
ENDBRANCH   2  25
TORSDOF 7
ENDMDL
MODEL 2
REMARK VINA RESULT:    17.043      2.043      9.600
REMARK INTER + INTRA:          23.464
REMARK INTER:                  23.420
REMARK INTRA:                   0.044
REMARK UNBOUND:                -0.553
REMARK SMILES Cc1ccc(NC(=O)c2ccc(CN3CCN(C)CC3)cc2)cc1Nc1nc(-c2cccnc2)cs1
REMARK SMILES IDX 6 1 7 2 8 3 5 5 2 6 3 7 24 8 4 9 23 10 1 11 25 12 26 14
REMARK SMILES IDX 27 15 36 16 28 17 35 18 29 19 30 20 34 21 31 22 33 23 32 24
REMARK SMILES IDX 9 25 10 26 22 27 11 28 21 29 12 30 13 31 14 32 15 33 20 34
REMARK SMILES IDX 16 35 19 36 17 37 18 38
REMARK H PARENT 6 4 25 13
ROOT
ATOM      1  N   UNL     1      27.174  25.431  44.529  1.00  0.00    -0.322 N 
ATOM      2  C   UNL     1      25.853  25.832  44.614  1.00  0.00     0.255 C 
ATOM      3  O   UNL     1      25.272  26.246  45.610  1.00  0.00    -0.269 OA
ATOM      4  H   UNL     1      27.536  25.256  43.602  1.00  0.00     0.170 HD
ENDROOT
BRANCH   1   5
ATOM      5  C   UNL     1      28.115  25.359  45.578  1.00  0.00     0.043 A 
ATOM      6  C   UNL     1      29.997  25.033  47.659  1.00  0.00    -0.027 A 
ATOM      7  C   UNL     1      29.313  23.929  47.135  1.00  0.00     0.008 A 
ATOM      8  C   UNL     1      29.711  26.316  47.157  1.00  0.00     0.045 A 
ATOM      9  C   UNL     1      28.385  24.091  46.104  1.00  0.00     0.026 A 
ATOM     10  C   UNL     1      28.774  26.464  46.117  1.00  0.00     0.052 A 
ATOM     11  C   UNL     1      30.992  24.823  48.767  1.00  0.00     0.046 C 
BRANCH   8  12
ATOM     12  N   UNL     1      30.346  27.462  47.692  1.00  0.00    -0.331 N 
ATOM     13  H   UNL     1      31.188  27.203  48.200  1.00  0.00     0.169 HD
BRANCH  12  14
ATOM     14  C   UNL     1      30.553  28.603  46.979  1.00  0.00     0.187 A 
ATOM     15  N   UNL     1      31.615  28.746  46.215  1.00  0.00    -0.220 NA
ATOM     16  S   UNL     1      29.510  29.980  46.992  1.00  0.00    -0.105 S 
ATOM     17  C   UNL     1      31.639  29.991  45.601  1.00  0.00     0.085 A 
ATOM     18  C   UNL     1      30.557  30.791  45.907  1.00  0.00     0.097 A 
BRANCH  17  19
ATOM     19  C   UNL     1      32.740  30.365  44.719  1.00  0.00     0.019 A 
ATOM     20  C   UNL     1      33.383  31.606  44.773  1.00  0.00     0.013 A 
ATOM     21  C   UNL     1      33.208  29.460  43.768  1.00  0.00     0.121 A 
ATOM     22  C   UNL     1      34.438  31.885  43.900  1.00  0.00     0.021 A 
ATOM     23  N   UNL     1      34.230  29.703  42.906  1.00  0.00    -0.264 NA
ATOM     24  C   UNL     1      34.821  30.911  42.994  1.00  0.00     0.111 A 
ENDBRANCH  17  19
ENDBRANCH  12  14
ENDBRANCH   8  12
ENDBRANCH   1   5
BRANCH   2  25
ATOM     25  C   UNL     1      25.109  25.787  43.324  1.00  0.00     0.040 A 
ATOM     26  C   UNL     1      25.681  25.106  42.246  1.00  0.00     0.014 A 
ATOM     27  C   UNL     1      23.869  26.420  43.170  1.00  0.00     0.014 A 
ATOM     28  C   UNL     1      25.002  25.028  41.029  1.00  0.00     0.006 A 
ATOM     29  C   UNL     1      23.193  26.344  41.948  1.00  0.00     0.006 A 
ATOM     30  C   UNL     1      23.747  25.637  40.870  1.00  0.00    -0.034 A 
BRANCH  30  31
ATOM     31  C   UNL     1      23.019  25.566  39.540  1.00  0.00     0.120 C 
BRANCH  31  32
ATOM     32  N   UNL     1      23.804  26.141  38.432  1.00  0.00    -0.297 NA
ATOM     33  C   UNL     1      23.270  25.688  37.133  1.00  0.00     0.100 C 
ATOM     34  C   UNL     1      25.237  25.771  38.528  1.00  0.00     0.100 C 
ATOM     35  C   UNL     1      23.475  24.182  36.811  1.00  0.00     0.099 C 
ATOM     36  C   UNL     1      25.695  24.553  37.680  1.00  0.00     0.099 C 
ATOM     37  N   UNL     1      24.625  23.565  37.499  1.00  0.00    -0.304 NA
ATOM     38  C   UNL     1      25.093  22.379  36.791  1.00  0.00     0.105 C 
ENDBRANCH  31  32
ENDBRANCH  30  31
ENDBRANCH   2  25
TORSDOF 7
ENDMDL
MODEL 3
REMARK VINA RESULT:    17.076      2.217      9.860
REMARK INTER + INTRA:          23.511
REMARK INTER:                  24.585
REMARK INTRA:                  -1.074
REMARK UNBOUND:                -0.553
REMARK SMILES Cc1ccc(NC(=O)c2ccc(CN3CCN(C)CC3)cc2)cc1Nc1nc(-c2cccnc2)cs1
REMARK SMILES IDX 6 1 7 2 8 3 5 5 2 6 3 7 24 8 4 9 23 10 1 11 25 12 26 14
REMARK SMILES IDX 27 15 36 16 28 17 35 18 29 19 30 20 34 21 31 22 33 23 32 24
REMARK SMILES IDX 9 25 10 26 22 27 11 28 21 29 12 30 13 31 14 32 15 33 20 34
REMARK SMILES IDX 16 35 19 36 17 37 18 38
REMARK H PARENT 6 4 25 13
ROOT
ATOM      1  N   UNL     1      27.474  25.272  44.594  1.00  0.00    -0.322 N 
ATOM      2  C   UNL     1      26.154  25.685  44.637  1.00  0.00     0.255 C 
ATOM      3  O   UNL     1      25.563  26.165  45.596  1.00  0.00    -0.269 OA
ATOM      4  H   UNL     1      27.846  25.038  43.684  1.00  0.00     0.170 HD
ENDROOT
BRANCH   1   5
ATOM      5  C   UNL     1      28.401  25.261  45.658  1.00  0.00     0.043 A 
ATOM      6  C   UNL     1      30.262  25.057  47.772  1.00  0.00    -0.027 A 
ATOM      7  C   UNL     1      29.633  23.914  47.262  1.00  0.00     0.008 A 
ATOM      8  C   UNL     1      29.931  26.316  47.239  1.00  0.00     0.045 A 
ATOM      9  C   UNL     1      28.714  24.016  46.215  1.00  0.00     0.026 A 
ATOM     10  C   UNL     1      29.005  26.403  46.183  1.00  0.00     0.052 A 
ATOM     11  C   UNL     1      31.248  24.910  48.899  1.00  0.00     0.046 C 
BRANCH   8  12
ATOM     12  N   UNL     1      30.511  27.498  47.758  1.00  0.00    -0.331 N 
ATOM     13  H   UNL     1      31.371  27.287  48.258  1.00  0.00     0.169 HD
BRANCH  12  14
ATOM     14  C   UNL     1      30.648  28.643  47.035  1.00  0.00     0.187 A 
ATOM     15  N   UNL     1      31.718  28.862  46.301  1.00  0.00    -0.220 NA
ATOM     16  S   UNL     1      29.498  29.933  46.999  1.00  0.00    -0.105 S 
ATOM     17  C   UNL     1      31.660  30.096  45.670  1.00  0.00     0.085 A 
ATOM     18  C   UNL     1      30.510  30.812  45.933  1.00  0.00     0.097 A 
BRANCH  17  19
ATOM     19  C   UNL     1      32.754  30.548  44.816  1.00  0.00     0.019 A 
ATOM     20  C   UNL     1      33.313  31.828  44.889  1.00  0.00     0.013 A 
ATOM     21  C   UNL     1      33.303  29.680  43.872  1.00  0.00     0.121 A 
ATOM     22  C   UNL     1      34.367  32.180  44.042  1.00  0.00     0.021 A 
ATOM     23  N   UNL     1      34.327  29.994  43.035  1.00  0.00    -0.264 NA
ATOM     24  C   UNL     1      34.834  31.238  43.142  1.00  0.00     0.111 A 
ENDBRANCH  17  19
ENDBRANCH  12  14
ENDBRANCH   8  12
ENDBRANCH   1   5
BRANCH   2  25
ATOM     25  C   UNL     1      25.426  25.564  43.343  1.00  0.00     0.040 A 
ATOM     26  C   UNL     1      26.047  24.889  42.287  1.00  0.00     0.014 A 
ATOM     27  C   UNL     1      24.153  26.120  43.161  1.00  0.00     0.014 A 
ATOM     28  C   UNL     1      25.385  24.740  41.067  1.00  0.00     0.006 A 
ATOM     29  C   UNL     1      23.495  25.973  41.937  1.00  0.00     0.006 A 
ATOM     30  C   UNL     1      24.098  25.271  40.882  1.00  0.00    -0.034 A 
BRANCH  30  31
ATOM     31  C   UNL     1      23.389  25.123  39.549  1.00  0.00     0.120 C 
BRANCH  31  32
ATOM     32  N   UNL     1      24.315  25.177  38.403  1.00  0.00    -0.297 NA
ATOM     33  C   UNL     1      24.397  26.550  37.871  1.00  0.00     0.100 C 
ATOM     34  C   UNL     1      23.897  24.256  37.318  1.00  0.00     0.100 C 
ATOM     35  C   UNL     1      23.117  27.075  37.165  1.00  0.00     0.099 C 
ATOM     36  C   UNL     1      23.074  24.882  36.159  1.00  0.00     0.099 C 
ATOM     37  N   UNL     1      22.255  26.016  36.606  1.00  0.00    -0.304 NA
ATOM     38  C   UNL     1      21.409  26.531  35.535  1.00  0.00     0.105 C 
ENDBRANCH  31  32
ENDBRANCH  30  31
ENDBRANCH   2  25
TORSDOF 7
ENDMDL
MODEL 4
REMARK VINA RESULT:    17.366      5.614      7.484
REMARK INTER + INTRA:          23.920
REMARK INTER:                  24.531
REMARK INTRA:                  -0.611
REMARK UNBOUND:                -0.553
REMARK SMILES Cc1ccc(NC(=O)c2ccc(CN3CCN(C)CC3)cc2)cc1Nc1nc(-c2cccnc2)cs1
REMARK SMILES IDX 6 1 7 2 8 3 5 5 2 6 3 7 24 8 4 9 23 10 1 11 25 12 26 14
REMARK SMILES IDX 27 15 36 16 28 17 35 18 29 19 30 20 34 21 31 22 33 23 32 24
REMARK SMILES IDX 9 25 10 26 22 27 11 28 21 29 12 30 13 31 14 32 15 33 20 34
REMARK SMILES IDX 16 35 19 36 17 37 18 38
REMARK H PARENT 6 4 25 13
ROOT
ATOM      1  N   UNL     1      26.714  25.577  45.456  1.00  0.00    -0.322 N 
ATOM      2  C   UNL     1      27.515  24.470  45.241  1.00  0.00     0.255 C 
ATOM      3  O   UNL     1      27.452  23.686  44.302  1.00  0.00    -0.269 OA
ATOM      4  H   UNL     1      26.994  26.201  46.200  1.00  0.00     0.170 HD
ENDROOT
BRANCH   1   5
ATOM      5  C   UNL     1      25.620  26.005  44.675  1.00  0.00     0.043 A 
ATOM      6  C   UNL     1      23.330  26.867  43.263  1.00  0.00    -0.027 A 
ATOM      7  C   UNL     1      23.233  26.455  44.599  1.00  0.00     0.008 A 
ATOM      8  C   UNL     1      24.581  26.816  42.621  1.00  0.00     0.045 A 
ATOM      9  C   UNL     1      24.366  26.031  45.296  1.00  0.00     0.026 A 
ATOM     10  C   UNL     1      25.714  26.389  43.337  1.00  0.00     0.052 A 
ATOM     11  C   UNL     1      22.090  27.320  42.543  1.00  0.00     0.046 C 
BRANCH   8  12
ATOM     12  N   UNL     1      24.712  27.181  41.260  1.00  0.00    -0.331 N 
ATOM     13  H   UNL     1      25.424  27.898  41.146  1.00  0.00     0.169 HD
BRANCH  12  14
ATOM     14  C   UNL     1      24.783  26.274  40.247  1.00  0.00     0.187 A 
ATOM     15  N   UNL     1      23.917  26.292  39.255  1.00  0.00    -0.220 NA
ATOM     16  S   UNL     1      25.952  25.008  40.133  1.00  0.00    -0.105 S 
ATOM     17  C   UNL     1      24.158  25.269  38.350  1.00  0.00     0.085 A 
ATOM     18  C   UNL     1      25.241  24.475  38.670  1.00  0.00     0.097 A 
BRANCH  17  19
ATOM     19  C   UNL     1      23.305  25.094  37.178  1.00  0.00     0.019 A 
ATOM     20  C   UNL     1      23.263  23.919  36.422  1.00  0.00     0.013 A 
ATOM     21  C   UNL     1      22.466  26.130  36.769  1.00  0.00     0.121 A 
ATOM     22  C   UNL     1      22.411  23.827  35.319  1.00  0.00     0.021 A 
ATOM     23  N   UNL     1      21.627  26.070  35.702  1.00  0.00    -0.264 NA
ATOM     24  C   UNL     1      21.620  24.918  35.003  1.00  0.00     0.111 A 
ENDBRANCH  17  19
ENDBRANCH  12  14
ENDBRANCH   8  12
ENDBRANCH   1   5
BRANCH   2  25
ATOM     25  C   UNL     1      28.589  24.278  46.256  1.00  0.00     0.040 A 
ATOM     26  C   UNL     1      29.292  23.069  46.265  1.00  0.00     0.014 A 
ATOM     27  C   UNL     1      28.893  25.268  47.199  1.00  0.00     0.014 A 
ATOM     28  C   UNL     1      30.317  22.864  47.189  1.00  0.00     0.006 A 
ATOM     29  C   UNL     1      29.918  25.058  48.126  1.00  0.00     0.006 A 
ATOM     30  C   UNL     1      30.648  23.860  48.123  1.00  0.00    -0.034 A 
BRANCH  30  31
ATOM     31  C   UNL     1      31.752  23.626  49.138  1.00  0.00     0.120 C 
BRANCH  31  32
ATOM     32  N   UNL     1      33.016  24.288  48.767  1.00  0.00    -0.297 NA
ATOM     33  C   UNL     1      34.149  23.675  49.484  1.00  0.00     0.100 C 
ATOM     34  C   UNL     1      32.978  25.741  49.060  1.00  0.00     0.100 C 
ATOM     35  C   UNL     1      34.191  23.929  51.016  1.00  0.00     0.099 C 
ATOM     36  C   UNL     1      33.613  26.191  50.405  1.00  0.00     0.099 C 
ATOM     37  N   UNL     1      33.502  25.161  51.446  1.00  0.00    -0.304 NA
ATOM     38  C   UNL     1      34.007  25.631  52.731  1.00  0.00     0.105 C 
ENDBRANCH  31  32
ENDBRANCH  30  31
ENDBRANCH   2  25
TORSDOF 7
ENDMDL
MODEL 5
REMARK VINA RESULT:    18.077      5.609      7.691
REMARK INTER + INTRA:          24.921
REMARK INTER:                  24.815
REMARK INTRA:                   0.106
REMARK UNBOUND:                -0.553
REMARK SMILES Cc1ccc(NC(=O)c2ccc(CN3CCN(C)CC3)cc2)cc1Nc1nc(-c2cccnc2)cs1
REMARK SMILES IDX 6 1 7 2 8 3 5 5 2 6 3 7 24 8 4 9 23 10 1 11 25 12 26 14
REMARK SMILES IDX 27 15 36 16 28 17 35 18 29 19 30 20 34 21 31 22 33 23 32 24
REMARK SMILES IDX 9 25 10 26 22 27 11 28 21 29 12 30 13 31 14 32 15 33 20 34
REMARK SMILES IDX 16 35 19 36 17 37 18 38
REMARK H PARENT 6 4 25 13
ROOT
ATOM      1  N   UNL     1      26.717  25.206  45.009  1.00  0.00    -0.322 N 
ATOM      2  C   UNL     1      27.587  24.136  44.891  1.00  0.00     0.255 C 
ATOM      3  O   UNL     1      27.616  23.307  43.991  1.00  0.00    -0.269 OA
ATOM      4  H   UNL     1      26.922  25.879  45.734  1.00  0.00     0.170 HD
ENDROOT
BRANCH   1   5
ATOM      5  C   UNL     1      25.645  25.534  44.152  1.00  0.00     0.043 A 
ATOM      6  C   UNL     1      23.476  26.343  42.534  1.00  0.00    -0.027 A 
ATOM      7  C   UNL     1      23.754  27.003  43.738  1.00  0.00     0.008 A 
ATOM      8  C   UNL     1      24.273  25.247  42.155  1.00  0.00     0.045 A 
ATOM      9  C   UNL     1      24.829  26.603  44.536  1.00  0.00     0.026 A 
ATOM     10  C   UNL     1      25.353  24.857  42.968  1.00  0.00     0.052 A 
ATOM     11  C   UNL     1      22.312  26.801  41.698  1.00  0.00     0.046 C 
BRANCH   8  12
ATOM     12  N   UNL     1      23.995  24.526  40.969  1.00  0.00    -0.331 N 
ATOM     13  H   UNL     1      23.071  24.104  41.012  1.00  0.00     0.169 HD
BRANCH  12  14
ATOM     14  C   UNL     1      24.238  25.016  39.722  1.00  0.00     0.187 A 
ATOM     15  N   UNL     1      23.345  25.752  39.094  1.00  0.00    -0.220 NA
ATOM     16  S   UNL     1      25.679  24.734  38.812  1.00  0.00    -0.105 S 
ATOM     17  C   UNL     1      23.787  26.122  37.832  1.00  0.00     0.085 A 
ATOM     18  C   UNL     1      25.048  25.660  37.517  1.00  0.00     0.097 A 
BRANCH  17  19
ATOM     19  C   UNL     1      22.945  26.931  36.956  1.00  0.00     0.019 A 
ATOM     20  C   UNL     1      21.856  26.418  36.243  1.00  0.00     0.013 A 
ATOM     21  C   UNL     1      23.203  28.294  36.807  1.00  0.00     0.121 A 
ATOM     22  C   UNL     1      21.091  27.261  35.433  1.00  0.00     0.021 A 
ATOM     23  N   UNL     1      22.478  29.137  36.026  1.00  0.00    -0.264 NA
ATOM     24  C   UNL     1      21.438  28.599  35.358  1.00  0.00     0.111 A 
ENDBRANCH  17  19
ENDBRANCH  12  14
ENDBRANCH   8  12
ENDBRANCH   1   5
BRANCH   2  25
ATOM     25  C   UNL     1      28.613  24.053  45.968  1.00  0.00     0.040 A 
ATOM     26  C   UNL     1      28.838  25.179  46.766  1.00  0.00     0.014 A 
ATOM     27  C   UNL     1      29.357  22.886  46.185  1.00  0.00     0.014 A 
ATOM     28  C   UNL     1      29.778  25.129  47.796  1.00  0.00     0.006 A 
ATOM     29  C   UNL     1      30.301  22.840  47.215  1.00  0.00     0.006 A 
ATOM     30  C   UNL     1      30.512  23.957  48.038  1.00  0.00    -0.034 A 
BRANCH  30  31
ATOM     31  C   UNL     1      31.546  23.911  49.148  1.00  0.00     0.120 C 
BRANCH  31  32
ATOM     32  N   UNL     1      32.857  24.438  48.726  1.00  0.00    -0.297 NA
ATOM     33  C   UNL     1      33.948  23.704  49.394  1.00  0.00     0.100 C 
ATOM     34  C   UNL     1      32.986  25.885  49.024  1.00  0.00     0.100 C 
ATOM     35  C   UNL     1      34.079  23.942  50.923  1.00  0.00     0.099 C 
ATOM     36  C   UNL     1      33.719  26.257  50.343  1.00  0.00     0.099 C 
ATOM     37  N   UNL     1      33.543  25.237  51.384  1.00  0.00    -0.304 NA
ATOM     38  C   UNL     1      34.147  25.642  52.649  1.00  0.00     0.105 C 
ENDBRANCH  31  32
ENDBRANCH  30  31
ENDBRANCH   2  25
TORSDOF 7
ENDMDL
MODEL 6
REMARK VINA RESULT:    18.490      6.129      9.274
REMARK INTER + INTRA:          25.504
REMARK INTER:                  24.263
REMARK INTRA:                   1.241
REMARK UNBOUND:                -0.553
REMARK SMILES Cc1ccc(NC(=O)c2ccc(CN3CCN(C)CC3)cc2)cc1Nc1nc(-c2cccnc2)cs1
REMARK SMILES IDX 6 1 7 2 8 3 5 5 2 6 3 7 24 8 4 9 23 10 1 11 25 12 26 14
REMARK SMILES IDX 27 15 36 16 28 17 35 18 29 19 30 20 34 21 31 22 33 23 32 24
REMARK SMILES IDX 9 25 10 26 22 27 11 28 21 29 12 30 13 31 14 32 15 33 20 34
REMARK SMILES IDX 16 35 19 36 17 37 18 38
REMARK H PARENT 6 4 25 13
ROOT
ATOM      1  N   UNL     1      25.903  24.711  41.490  1.00  0.00    -0.322 N 
ATOM      2  C   UNL     1      25.370  25.273  42.636  1.00  0.00     0.255 C 
ATOM      3  O   UNL     1      24.279  25.819  42.750  1.00  0.00    -0.269 OA
ATOM      4  H   UNL     1      26.750  24.171  41.602  1.00  0.00     0.170 HD
ENDROOT
BRANCH   1   5
ATOM      5  C   UNL     1      25.334  24.697  40.199  1.00  0.00     0.043 A 
ATOM      6  C   UNL     1      24.122  24.508  37.655  1.00  0.00    -0.027 A 
ATOM      7  C   UNL     1      24.163  23.400  38.511  1.00  0.00     0.008 A 
ATOM      8  C   UNL     1      24.722  25.713  38.066  1.00  0.00     0.045 A 
ATOM      9  C   UNL     1      24.761  23.496  39.770  1.00  0.00     0.026 A 
ATOM     10  C   UNL     1      25.319  25.795  39.338  1.00  0.00     0.052 A 
ATOM     11  C   UNL     1      23.468  24.371  36.307  1.00  0.00     0.046 C 
BRANCH   8  12
ATOM     12  N   UNL     1      24.742  26.841  37.212  1.00  0.00    -0.331 N 
ATOM     13  H   UNL     1      25.374  26.689  36.429  1.00  0.00     0.169 HD
BRANCH  12  14
ATOM     14  C   UNL     1      23.616  27.484  36.797  1.00  0.00     0.187 A 
ATOM     15  N   UNL     1      23.587  28.794  36.670  1.00  0.00    -0.220 NA
ATOM     16  S   UNL     1      22.118  26.711  36.419  1.00  0.00    -0.105 S 
ATOM     17  C   UNL     1      22.339  29.240  36.260  1.00  0.00     0.085 A 
ATOM     18  C   UNL     1      21.416  28.232  36.065  1.00  0.00     0.097 A 
BRANCH  17  19
ATOM     19  C   UNL     1      22.082  30.664  36.071  1.00  0.00     0.019 A 
ATOM     20  C   UNL     1      20.833  31.257  36.279  1.00  0.00     0.013 A 
ATOM     21  C   UNL     1      23.116  31.510  35.671  1.00  0.00     0.121 A 
ATOM     22  C   UNL     1      20.670  32.631  36.086  1.00  0.00     0.021 A 
ATOM     23  N   UNL     1      22.988  32.848  35.475  1.00  0.00    -0.264 NA
ATOM     24  C   UNL     1      21.767  33.376  35.688  1.00  0.00     0.111 A 
ENDBRANCH  17  19
ENDBRANCH  12  14
ENDBRANCH   8  12
ENDBRANCH   1   5
BRANCH   2  25
ATOM     25  C   UNL     1      26.223  25.132  43.849  1.00  0.00     0.040 A 
ATOM     26  C   UNL     1      27.147  24.083  43.898  1.00  0.00     0.014 A 
ATOM     27  C   UNL     1      26.109  26.010  44.934  1.00  0.00     0.014 A 
ATOM     28  C   UNL     1      27.976  23.934  45.011  1.00  0.00     0.006 A 
ATOM     29  C   UNL     1      26.938  25.855  46.049  1.00  0.00     0.006 A 
ATOM     30  C   UNL     1      27.887  24.823  46.093  1.00  0.00    -0.034 A 
BRANCH  30  31
ATOM     31  C   UNL     1      28.778  24.647  47.310  1.00  0.00     0.120 C 
BRANCH  31  32
ATOM     32  N   UNL     1      29.543  23.387  47.276  1.00  0.00    -0.297 NA
ATOM     33  C   UNL     1      29.840  22.927  48.645  1.00  0.00     0.100 C 
ATOM     34  C   UNL     1      30.813  23.539  46.525  1.00  0.00     0.100 C 
ATOM     35  C   UNL     1      30.851  23.796  49.442  1.00  0.00     0.099 C 
ATOM     36  C   UNL     1      32.088  23.815  47.369  1.00  0.00     0.099 C 
ATOM     37  N   UNL     1      31.791  24.561  48.599  1.00  0.00    -0.304 NA
ATOM     38  C   UNL     1      33.004  24.904  49.333  1.00  0.00     0.105 C 
ENDBRANCH  31  32
ENDBRANCH  30  31
ENDBRANCH   2  25
TORSDOF 7
ENDMDL
MODEL 7
REMARK VINA RESULT:    19.301      5.957     11.952
REMARK INTER + INTRA:          26.647
REMARK INTER:                  26.138
REMARK INTRA:                   0.509
REMARK UNBOUND:                -0.553
REMARK SMILES Cc1ccc(NC(=O)c2ccc(CN3CCN(C)CC3)cc2)cc1Nc1nc(-c2cccnc2)cs1
REMARK SMILES IDX 6 1 7 2 8 3 5 5 2 6 3 7 24 8 4 9 23 10 1 11 25 12 26 14
REMARK SMILES IDX 27 15 36 16 28 17 35 18 29 19 30 20 34 21 31 22 33 23 32 24
REMARK SMILES IDX 9 25 10 26 22 27 11 28 21 29 12 30 13 31 14 32 15 33 20 34
REMARK SMILES IDX 16 35 19 36 17 37 18 38
REMARK H PARENT 6 4 25 13
ROOT
ATOM      1  N   UNL     1      25.089  24.789  40.854  1.00  0.00    -0.322 N 
ATOM      2  C   UNL     1      25.151  25.305  39.572  1.00  0.00     0.255 C 
ATOM      3  O   UNL     1      25.377  26.466  39.255  1.00  0.00    -0.269 OA
ATOM      4  H   UNL     1      25.040  23.783  40.936  1.00  0.00     0.170 HD
ENDROOT
BRANCH   1   5
ATOM      5  C   UNL     1      25.213  25.498  42.068  1.00  0.00     0.043 A 
ATOM      6  C   UNL     1      25.368  27.052  44.421  1.00  0.00    -0.027 A 
ATOM      7  C   UNL     1      24.901  27.611  43.225  1.00  0.00     0.008 A 
ATOM      8  C   UNL     1      25.791  25.710  44.429  1.00  0.00     0.045 A 
ATOM      9  C   UNL     1      24.823  26.841  42.062  1.00  0.00     0.026 A 
ATOM     10  C   UNL     1      25.705  24.945  43.251  1.00  0.00     0.052 A 
ATOM     11  C   UNL     1      25.437  27.909  45.655  1.00  0.00     0.046 C 
BRANCH   8  12
ATOM     12  N   UNL     1      26.312  25.121  45.607  1.00  0.00    -0.331 N 
ATOM     13  H   UNL     1      25.580  24.640  46.123  1.00  0.00     0.169 HD
BRANCH  12  14
ATOM     14  C   UNL     1      27.467  24.401  45.634  1.00  0.00     0.187 A 
ATOM     15  N   UNL     1      28.414  24.665  46.509  1.00  0.00    -0.220 NA
ATOM     16  S   UNL     1      27.852  23.108  44.554  1.00  0.00    -0.105 S 
ATOM     17  C   UNL     1      29.509  23.829  46.344  1.00  0.00     0.085 A 
ATOM     18  C   UNL     1      29.368  22.909  45.326  1.00  0.00     0.097 A 
BRANCH  17  19
ATOM     19  C   UNL     1      30.682  23.961  47.203  1.00  0.00     0.019 A 
ATOM     20  C   UNL     1      30.615  24.332  48.550  1.00  0.00     0.013 A 
ATOM     21  C   UNL     1      31.952  23.699  46.690  1.00  0.00     0.121 A 
ATOM     22  C   UNL     1      31.784  24.425  49.308  1.00  0.00     0.021 A 
ATOM     23  N   UNL     1      33.106  23.783  47.402  1.00  0.00    -0.264 NA
ATOM     24  C   UNL     1      32.993  24.143  48.696  1.00  0.00     0.111 A 
ENDBRANCH  17  19
ENDBRANCH  12  14
ENDBRANCH   8  12
ENDBRANCH   1   5
BRANCH   2  25
ATOM     25  C   UNL     1      24.970  24.296  38.491  1.00  0.00     0.040 A 
ATOM     26  C   UNL     1      25.774  23.153  38.501  1.00  0.00     0.014 A 
ATOM     27  C   UNL     1      24.030  24.477  37.468  1.00  0.00     0.014 A 
ATOM     28  C   UNL     1      25.617  22.179  37.514  1.00  0.00     0.006 A 
ATOM     29  C   UNL     1      23.877  23.501  36.478  1.00  0.00     0.006 A 
ATOM     30  C   UNL     1      24.660  22.337  36.499  1.00  0.00    -0.034 A 
BRANCH  30  31
ATOM     31  C   UNL     1      24.504  21.284  35.416  1.00  0.00     0.120 C 
BRANCH  31  32
ATOM     32  N   UNL     1      23.100  20.884  35.211  1.00  0.00    -0.297 NA
ATOM     33  C   UNL     1      22.385  20.834  36.500  1.00  0.00     0.100 C 
ATOM     34  C   UNL     1      23.001  19.563  34.544  1.00  0.00     0.100 C 
ATOM     35  C   UNL     1      22.817  19.696  37.464  1.00  0.00     0.099 C 
ATOM     36  C   UNL     1      22.789  18.334  35.472  1.00  0.00     0.099 C 
ATOM     37  N   UNL     1      23.403  18.520  36.792  1.00  0.00    -0.304 NA
ATOM     38  C   UNL     1      23.289  17.324  37.619  1.00  0.00     0.105 C 
ENDBRANCH  31  32
ENDBRANCH  30  31
ENDBRANCH   2  25
TORSDOF 7
ENDMDL
