MODEL 1
REMARK VINA RESULT:    -7.363      0.000      0.000
REMARK INTER + INTRA:         -10.861
REMARK INTER:                  -9.730
REMARK INTRA:                  -1.131
REMARK UNBOUND:                -1.131
REMARK SMILES CCCNC(=O)c1nnc2c(-c3c(F)cccc3OC)cccc2c1N
REMARK SMILES IDX 7 1 8 2 9 3 10 4 24 5 25 6 23 7 22 8 21 9 11 10 5 11 4 12
REMARK SMILES IDX 6 13 3 15 2 16 1 17 26 18 12 21 18 22 13 23 17 24 15 25
REMARK SMILES IDX 16 26 14 27 19 28 20 29
REMARK H PARENT 4 14 26 19 26 20
ROOT
ATOM      1  C   UNL     1     142.726  97.158 138.147  1.00  0.00     0.174 A 
ATOM      2  N   UNL     1     141.519  97.636 137.770  1.00  0.00    -0.142 NA
ATOM      3  N   UNL     1     141.216  97.713 136.440  1.00  0.00    -0.149 NA
ATOM      4  C   UNL     1     142.101  97.353 135.487  1.00  0.00     0.103 A 
ATOM      5  C   UNL     1     143.377  96.861 135.851  1.00  0.00     0.028 A 
ATOM      6  C   UNL     1     143.687  96.718 137.229  1.00  0.00     0.075 A 
ATOM      7  C   UNL     1     144.297  96.540 134.822  1.00  0.00     0.013 A 
ATOM      8  C   UNL     1     143.963  96.671 133.478  1.00  0.00     0.002 A 
ATOM      9  C   UNL     1     142.703  97.131 133.130  1.00  0.00     0.011 A 
ATOM     10  C   UNL     1     141.770  97.476 134.124  1.00  0.00     0.017 A 
ENDROOT
BRANCH   1  11
ATOM     11  C   UNL     1     142.933  97.083 139.631  1.00  0.00     0.273 C 
ATOM     12  N   UNL     1     141.979  96.358 140.320  1.00  0.00    -0.351 N 
ATOM     13  O   UNL     1     143.893  97.623 140.175  1.00  0.00    -0.267 OA
ATOM     14  H   UNL     1     141.224  95.949 139.775  1.00  0.00     0.163 HD
BRANCH  12  15
ATOM     15  C   UNL     1     141.989  96.194 141.756  1.00  0.00     0.116 C 
BRANCH  15  16
ATOM     16  C   UNL     1     141.122  97.233 142.465  1.00  0.00     0.018 C 
ATOM     17  C   UNL     1     141.879  98.020 143.525  1.00  0.00     0.006 C 
ENDBRANCH  15  16
ENDBRANCH  12  15
ENDBRANCH   1  11
BRANCH   6  18
ATOM     18  N   UNL     1     144.987  96.313 137.637  1.00  0.00    -0.396 N 
ATOM     19  H   UNL     1     144.988  95.355 138.013  1.00  0.00     0.156 HD
ATOM     20  H   UNL     1     145.698  96.424 136.920  1.00  0.00     0.156 HD
ENDBRANCH   6  18
BRANCH  10  21
ATOM     21  C   UNL     1     140.443  97.970 133.711  1.00  0.00     0.062 A 
ATOM     22  C   UNL     1     139.376  97.092 133.422  1.00  0.00     0.129 A 
ATOM     23  C   UNL     1     140.222  99.350 133.583  1.00  0.00     0.134 A 
ATOM     24  C   UNL     1     138.133  97.609 133.028  1.00  0.00     0.047 A 
ATOM     25  C   UNL     1     138.990  99.860 133.186  1.00  0.00     0.040 A 
ATOM     26  C   UNL     1     137.944  98.989 132.909  1.00  0.00     0.007 A 
ATOM     27  F   UNL     1     141.209 100.217 133.856  1.00  0.00    -0.206 F 
BRANCH  22  28
ATOM     28  O   UNL     1     139.640  95.753 133.573  1.00  0.00    -0.496 OA
ATOM     29  C   UNL     1     139.644  94.952 132.398  1.00  0.00     0.278 C 
ENDBRANCH  22  28
ENDBRANCH  10  21
TORSDOF 6
ENDMDL
MODEL 2
REMARK VINA RESULT:    -7.058      1.655      2.236
REMARK INTER + INTRA:         -10.459
REMARK INTER:                  -9.324
REMARK INTRA:                  -1.135
REMARK UNBOUND:                -1.131
REMARK SMILES CCCNC(=O)c1nnc2c(-c3c(F)cccc3OC)cccc2c1N
REMARK SMILES IDX 7 1 8 2 9 3 10 4 24 5 25 6 23 7 22 8 21 9 11 10 5 11 4 12
REMARK SMILES IDX 6 13 3 15 2 16 1 17 26 18 12 21 18 22 13 23 17 24 15 25
REMARK SMILES IDX 16 26 14 27 19 28 20 29
REMARK H PARENT 4 14 26 19 26 20
ROOT
ATOM      1  C   UNL     1     142.836  96.673 137.702  1.00  0.00     0.174 A 
ATOM      2  N   UNL     1     141.583  96.935 137.266  1.00  0.00    -0.142 NA
ATOM      3  N   UNL     1     141.292  96.790 135.939  1.00  0.00    -0.149 NA
ATOM      4  C   UNL     1     142.231  96.421 135.042  1.00  0.00     0.103 A 
ATOM      5  C   UNL     1     143.553  96.153 135.466  1.00  0.00     0.028 A 
ATOM      6  C   UNL     1     143.859  96.240 136.851  1.00  0.00     0.075 A 
ATOM      7  C   UNL     1     144.522  95.815 134.489  1.00  0.00     0.013 A 
ATOM      8  C   UNL     1     144.195  95.717 133.141  1.00  0.00     0.002 A 
ATOM      9  C   UNL     1     142.892  95.959 132.737  1.00  0.00     0.011 A 
ATOM     10  C   UNL     1     141.907  96.313 133.676  1.00  0.00     0.017 A 
ENDROOT
BRANCH   1  11
ATOM     11  C   UNL     1     143.028  96.829 139.181  1.00  0.00     0.273 C 
ATOM     12  N   UNL     1     142.212  96.034 139.965  1.00  0.00    -0.351 N 
ATOM     13  O   UNL     1     143.862  97.602 139.644  1.00  0.00    -0.267 OA
ATOM     14  H   UNL     1     141.555  95.426 139.484  1.00  0.00     0.163 HD
BRANCH  12  15
ATOM     15  C   UNL     1     142.229  96.061 141.411  1.00  0.00     0.116 C 
BRANCH  15  16
ATOM     16  C   UNL     1     141.112  96.928 141.988  1.00  0.00     0.018 C 
ATOM     17  C   UNL     1     141.530  97.686 143.240  1.00  0.00     0.006 C 
ENDBRANCH  15  16
ENDBRANCH  12  15
ENDBRANCH   1  11
BRANCH   6  18
ATOM     18  N   UNL     1     145.193  96.066 137.307  1.00  0.00    -0.396 N 
ATOM     19  H   UNL     1     145.558  96.918 137.754  1.00  0.00     0.156 HD
ATOM     20  H   UNL     1     145.323  95.256 137.904  1.00  0.00     0.156 HD
ENDBRANCH   6  18
BRANCH  10  21
ATOM     21  C   UNL     1     140.534  96.571 133.202  1.00  0.00     0.062 A 
ATOM     22  C   UNL     1     140.114  97.857 132.798  1.00  0.00     0.129 A 
ATOM     23  C   UNL     1     139.603  95.523 133.158  1.00  0.00     0.134 A 
ATOM     24  C   UNL     1     138.797  98.055 132.359  1.00  0.00     0.047 A 
ATOM     25  C   UNL     1     138.294  95.723 132.728  1.00  0.00     0.040 A 
ATOM     26  C   UNL     1     137.891  96.991 132.327  1.00  0.00     0.007 A 
ATOM     27  F   UNL     1     139.966  94.284 133.527  1.00  0.00    -0.206 F 
BRANCH  22  28
ATOM     28  O   UNL     1     141.066  98.846 132.850  1.00  0.00    -0.496 OA
ATOM     29  C   UNL     1     140.919  99.840 133.855  1.00  0.00     0.278 C 
ENDBRANCH  22  28
ENDBRANCH  10  21
TORSDOF 6
ENDMDL
MODEL 3
REMARK VINA RESULT:    -6.885      1.898      3.578
REMARK INTER + INTRA:         -10.231
REMARK INTER:                  -9.307
REMARK INTRA:                  -0.923
REMARK UNBOUND:                -1.131
REMARK SMILES CCCNC(=O)c1nnc2c(-c3c(F)cccc3OC)cccc2c1N
REMARK SMILES IDX 7 1 8 2 9 3 10 4 24 5 25 6 23 7 22 8 21 9 11 10 5 11 4 12
REMARK SMILES IDX 6 13 3 15 2 16 1 17 26 18 12 21 18 22 13 23 17 24 15 25
REMARK SMILES IDX 16 26 14 27 19 28 20 29
REMARK H PARENT 4 14 26 19 26 20
ROOT
ATOM      1  C   UNL     1     142.169  96.859 138.694  1.00  0.00     0.174 A 
ATOM      2  N   UNL     1     143.157  96.499 137.846  1.00  0.00    -0.142 NA
ATOM      3  N   UNL     1     143.069  96.848 136.528  1.00  0.00    -0.149 NA
ATOM      4  C   UNL     1     142.004  97.518 136.041  1.00  0.00     0.103 A 
ATOM      5  C   UNL     1     140.947  97.897 136.902  1.00  0.00     0.028 A 
ATOM      6  C   UNL     1     141.051  97.596 138.286  1.00  0.00     0.075 A 
ATOM      7  C   UNL     1     139.823  98.557 136.344  1.00  0.00     0.013 A 
ATOM      8  C   UNL     1     139.753  98.859 134.989  1.00  0.00     0.002 A 
ATOM      9  C   UNL     1     140.802  98.505 134.156  1.00  0.00     0.011 A 
ATOM     10  C   UNL     1     141.927  97.834 134.671  1.00  0.00     0.017 A 
ENDROOT
BRANCH   1  11
ATOM     11  C   UNL     1     142.392  96.455 140.121  1.00  0.00     0.273 C 
ATOM     12  N   UNL     1     142.923  97.440 140.933  1.00  0.00    -0.351 N 
ATOM     13  O   UNL     1     142.107  95.331 140.524  1.00  0.00    -0.267 OA
ATOM     14  H   UNL     1     143.122  98.340 140.502  1.00  0.00     0.163 HD
BRANCH  12  15
ATOM     15  C   UNL     1     143.235  97.237 142.330  1.00  0.00     0.116 C 
BRANCH  15  16
ATOM     16  C   UNL     1     142.278  97.988 143.254  1.00  0.00     0.018 C 
ATOM     17  C   UNL     1     142.946  99.132 144.003  1.00  0.00     0.006 C 
ENDBRANCH  15  16
ENDBRANCH  12  15
ENDBRANCH   1  11
BRANCH   6  18
ATOM     18  N   UNL     1     139.973  97.879 139.168  1.00  0.00    -0.396 N 
ATOM     19  H   UNL     1     139.585  97.021 139.584  1.00  0.00     0.156 HD
ATOM     20  H   UNL     1     140.194  98.564 139.883  1.00  0.00     0.156 HD
ENDBRANCH   6  18
BRANCH  10  21
ATOM     21  C   UNL     1     143.018  97.467 133.748  1.00  0.00     0.062 A 
ATOM     22  C   UNL     1     143.006  96.255 133.025  1.00  0.00     0.129 A 
ATOM     23  C   UNL     1     144.112  98.329 133.583  1.00  0.00     0.134 A 
ATOM     24  C   UNL     1     144.068  95.946 132.163  1.00  0.00     0.047 A 
ATOM     25  C   UNL     1     145.168  98.018 132.732  1.00  0.00     0.040 A 
ATOM     26  C   UNL     1     145.146  96.825 132.020  1.00  0.00     0.007 A 
ATOM     27  F   UNL     1     144.155  99.495 134.248  1.00  0.00    -0.206 F 
BRANCH  22  28
ATOM     28  O   UNL     1     141.908  95.451 133.213  1.00  0.00    -0.496 OA
ATOM     29  C   UNL     1     142.119  94.199 133.853  1.00  0.00     0.278 C 
ENDBRANCH  22  28
ENDBRANCH  10  21
TORSDOF 6
ENDMDL
MODEL 4
REMARK VINA RESULT:    -6.645      2.225      3.891
REMARK INTER + INTRA:          -9.912
REMARK INTER:                  -9.295
REMARK INTRA:                  -0.618
REMARK UNBOUND:                -1.131
REMARK SMILES CCCNC(=O)c1nnc2c(-c3c(F)cccc3OC)cccc2c1N
REMARK SMILES IDX 7 1 8 2 9 3 10 4 24 5 25 6 23 7 22 8 21 9 11 10 5 11 4 12
REMARK SMILES IDX 6 13 3 15 2 16 1 17 26 18 12 21 18 22 13 23 17 24 15 25
REMARK SMILES IDX 16 26 14 27 19 28 20 29
REMARK H PARENT 4 14 26 19 26 20
ROOT
ATOM      1  C   UNL     1     142.035  96.995 137.532  1.00  0.00     0.174 A 
ATOM      2  N   UNL     1     142.796  96.356 136.616  1.00  0.00    -0.142 NA
ATOM      3  N   UNL     1     142.405  96.349 135.307  1.00  0.00    -0.149 NA
ATOM      4  C   UNL     1     141.260  96.939 134.905  1.00  0.00     0.103 A 
ATOM      5  C   UNL     1     140.435  97.606 135.843  1.00  0.00     0.028 A 
ATOM      6  C   UNL     1     140.857  97.674 137.197  1.00  0.00     0.075 A 
ATOM      7  C   UNL     1     139.217  98.171 135.391  1.00  0.00     0.013 A 
ATOM      8  C   UNL     1     138.834  98.108 134.056  1.00  0.00     0.002 A 
ATOM      9  C   UNL     1     139.658  97.474 133.140  1.00  0.00     0.011 A 
ATOM     10  C   UNL     1     140.867  96.887 133.554  1.00  0.00     0.017 A 
ENDROOT
BRANCH   1  11
ATOM     11  C   UNL     1     142.583  96.969 138.928  1.00  0.00     0.273 C 
ATOM     12  N   UNL     1     141.779  96.341 139.861  1.00  0.00    -0.351 N 
ATOM     13  O   UNL     1     143.673  97.464 139.201  1.00  0.00    -0.267 OA
ATOM     14  H   UNL     1     140.895  95.961 139.533  1.00  0.00     0.163 HD
BRANCH  12  15
ATOM     15  C   UNL     1     142.121  96.237 141.263  1.00  0.00     0.116 C 
BRANCH  15  16
ATOM     16  C   UNL     1     140.998  96.732 142.172  1.00  0.00     0.018 C 
ATOM     17  C   UNL     1     141.490  97.641 143.288  1.00  0.00     0.006 C 
ENDBRANCH  15  16
ENDBRANCH  12  15
ENDBRANCH   1  11
BRANCH   6  18
ATOM     18  N   UNL     1     140.017  98.255 138.185  1.00  0.00    -0.396 N 
ATOM     19  H   UNL     1     139.178  98.683 137.768  1.00  0.00     0.156 HD
ATOM     20  H   UNL     1     139.767  97.622 138.939  1.00  0.00     0.156 HD
ENDBRANCH   6  18
BRANCH  10  21
ATOM     21  C   UNL     1     141.711  96.214 132.548  1.00  0.00     0.062 A 
ATOM     22  C   UNL     1     142.585  96.934 131.705  1.00  0.00     0.129 A 
ATOM     23  C   UNL     1     141.644  94.820 132.403  1.00  0.00     0.134 A 
ATOM     24  C   UNL     1     143.364  96.250 130.760  1.00  0.00     0.047 A 
ATOM     25  C   UNL     1     142.414  94.144 131.460  1.00  0.00     0.040 A 
ATOM     26  C   UNL     1     143.275  94.860 130.638  1.00  0.00     0.007 A 
ATOM     27  F   UNL     1     140.831  94.100 133.191  1.00  0.00    -0.206 F 
BRANCH  22  28
ATOM     28  O   UNL     1     142.621  98.293 131.894  1.00  0.00    -0.496 OA
ATOM     29  C   UNL     1     143.804  98.843 132.459  1.00  0.00     0.278 C 
ENDBRANCH  22  28
ENDBRANCH  10  21
TORSDOF 6
ENDMDL
MODEL 5
REMARK VINA RESULT:    -6.633      2.959      4.940
REMARK INTER + INTRA:          -9.897
REMARK INTER:                  -8.820
REMARK INTRA:                  -1.077
REMARK UNBOUND:                -1.131
REMARK SMILES CCCNC(=O)c1nnc2c(-c3c(F)cccc3OC)cccc2c1N
REMARK SMILES IDX 7 1 8 2 9 3 10 4 24 5 25 6 23 7 22 8 21 9 11 10 5 11 4 12
REMARK SMILES IDX 6 13 3 15 2 16 1 17 26 18 12 21 18 22 13 23 17 24 15 25
REMARK SMILES IDX 16 26 14 27 19 28 20 29
REMARK H PARENT 4 14 26 19 26 20
ROOT
ATOM      1  C   UNL     1     143.899  95.785 135.659  1.00  0.00     0.174 A 
ATOM      2  N   UNL     1     143.147  95.687 134.540  1.00  0.00    -0.142 NA
ATOM      3  N   UNL     1     141.924  96.294 134.501  1.00  0.00    -0.149 NA
ATOM      4  C   UNL     1     141.429  96.966 135.561  1.00  0.00     0.103 A 
ATOM      5  C   UNL     1     142.188  97.075 136.751  1.00  0.00     0.028 A 
ATOM      6  C   UNL     1     143.487  96.502 136.788  1.00  0.00     0.075 A 
ATOM      7  C   UNL     1     141.616  97.747 137.859  1.00  0.00     0.013 A 
ATOM      8  C   UNL     1     140.350  98.318 137.792  1.00  0.00     0.002 A 
ATOM      9  C   UNL     1     139.622  98.226 136.616  1.00  0.00     0.011 A 
ATOM     10  C   UNL     1     140.151  97.553 135.501  1.00  0.00     0.017 A 
ENDROOT
BRANCH   1  11
ATOM     11  C   UNL     1     145.237  95.113 135.573  1.00  0.00     0.273 C 
ATOM     12  N   UNL     1     145.205  93.795 135.156  1.00  0.00    -0.351 N 
ATOM     13  O   UNL     1     146.276  95.709 135.845  1.00  0.00    -0.267 OA
ATOM     14  H   UNL     1     144.294  93.394 134.952  1.00  0.00     0.163 HD
BRANCH  12  15
ATOM     15  C   UNL     1     146.387  92.971 135.036  1.00  0.00     0.116 C 
BRANCH  15  16
ATOM     16  C   UNL     1     146.474  91.918 136.139  1.00  0.00     0.018 C 
ATOM     17  C   UNL     1     145.776  90.614 135.778  1.00  0.00     0.006 C 
ENDBRANCH  15  16
ENDBRANCH  12  15
ENDBRANCH   1  11
BRANCH   6  18
ATOM     18  N   UNL     1     144.244  96.512 137.991  1.00  0.00    -0.396 N 
ATOM     19  H   UNL     1     144.310  95.573 138.408  1.00  0.00     0.156 HD
ATOM     20  H   UNL     1     145.162  96.934 137.897  1.00  0.00     0.156 HD
ENDBRANCH   6  18
BRANCH  10  21
ATOM     21  C   UNL     1     139.340  97.471 134.271  1.00  0.00     0.062 A 
ATOM     22  C   UNL     1     139.338  98.503 133.308  1.00  0.00     0.129 A 
ATOM     23  C   UNL     1     138.531  96.347 134.043  1.00  0.00     0.134 A 
ATOM     24  C   UNL     1     138.546  98.382 132.157  1.00  0.00     0.047 A 
ATOM     25  C   UNL     1     137.742  96.232 132.903  1.00  0.00     0.040 A 
ATOM     26  C   UNL     1     137.750  97.251 131.958  1.00  0.00     0.007 A 
ATOM     27  F   UNL     1     138.511  95.341 134.932  1.00  0.00    -0.206 F 
BRANCH  22  28
ATOM     28  O   UNL     1     140.154  99.576 133.573  1.00  0.00    -0.496 OA
ATOM     29  C   UNL     1     139.625 100.873 133.332  1.00  0.00     0.278 C 
ENDBRANCH  22  28
ENDBRANCH  10  21
TORSDOF 6
ENDMDL
MODEL 6
REMARK VINA RESULT:    -6.616      2.557      4.531
REMARK INTER + INTRA:          -9.874
REMARK INTER:                  -8.860
REMARK INTRA:                  -1.014
REMARK UNBOUND:                -1.131
REMARK SMILES CCCNC(=O)c1nnc2c(-c3c(F)cccc3OC)cccc2c1N
REMARK SMILES IDX 7 1 8 2 9 3 10 4 24 5 25 6 23 7 22 8 21 9 11 10 5 11 4 12
REMARK SMILES IDX 6 13 3 15 2 16 1 17 26 18 12 21 18 22 13 23 17 24 15 25
REMARK SMILES IDX 16 26 14 27 19 28 20 29
REMARK H PARENT 4 14 26 19 26 20
ROOT
ATOM      1  C   UNL     1     142.035  96.823 139.226  1.00  0.00     0.174 A 
ATOM      2  N   UNL     1     143.098  96.229 138.641  1.00  0.00    -0.142 NA
ATOM      3  N   UNL     1     143.176  96.189 137.277  1.00  0.00    -0.149 NA
ATOM      4  C   UNL     1     142.203  96.702 136.495  1.00  0.00     0.103 A 
ATOM      5  C   UNL     1     141.072  97.319 137.079  1.00  0.00     0.028 A 
ATOM      6  C   UNL     1     141.003  97.422 138.494  1.00  0.00     0.075 A 
ATOM      7  C   UNL     1     140.048  97.802 136.226  1.00  0.00     0.013 A 
ATOM      8  C   UNL     1     140.147  97.706 134.842  1.00  0.00     0.002 A 
ATOM      9  C   UNL     1     141.269  97.122 134.277  1.00  0.00     0.011 A 
ATOM     10  C   UNL     1     142.297  96.616 135.092  1.00  0.00     0.017 A 
ENDROOT
BRANCH   1  11
ATOM     11  C   UNL     1     142.076  96.841 140.725  1.00  0.00     0.273 C 
ATOM     12  N   UNL     1     143.232  97.363 141.274  1.00  0.00    -0.351 N 
ATOM     13  O   UNL     1     141.136  96.427 141.400  1.00  0.00    -0.267 OA
ATOM     14  H   UNL     1     143.951  97.680 140.629  1.00  0.00     0.163 HD
BRANCH  12  15
ATOM     15  C   UNL     1     143.471  97.440 142.698  1.00  0.00     0.116 C 
BRANCH  15  16
ATOM     16  C   UNL     1     144.176  98.735 143.099  1.00  0.00     0.018 C 
ATOM     17  C   UNL     1     143.468  99.476 144.224  1.00  0.00     0.006 C 
ENDBRANCH  15  16
ENDBRANCH  12  15
ENDBRANCH   1  11
BRANCH   6  18
ATOM     18  N   UNL     1     139.844  97.954 139.122  1.00  0.00    -0.396 N 
ATOM     19  H   UNL     1     139.184  97.212 139.394  1.00  0.00     0.156 HD
ATOM     20  H   UNL     1     140.044  98.569 139.904  1.00  0.00     0.156 HD
ENDBRANCH   6  18
BRANCH  10  21
ATOM     21  C   UNL     1     143.470  95.993 134.451  1.00  0.00     0.062 A 
ATOM     22  C   UNL     1     144.601  96.748 134.071  1.00  0.00     0.129 A 
ATOM     23  C   UNL     1     143.473  94.614 134.192  1.00  0.00     0.134 A 
ATOM     24  C   UNL     1     145.691  96.111 133.459  1.00  0.00     0.047 A 
ATOM     25  C   UNL     1     144.553  93.986 133.579  1.00  0.00     0.040 A 
ATOM     26  C   UNL     1     145.664  94.735 133.213  1.00  0.00     0.007 A 
ATOM     27  F   UNL     1     142.419  93.862 134.545  1.00  0.00    -0.206 F 
BRANCH  22  28
ATOM     28  O   UNL     1     144.554  98.090 134.356  1.00  0.00    -0.496 OA
ATOM     29  C   UNL     1     144.265  98.975 133.282  1.00  0.00     0.278 C 
ENDBRANCH  22  28
ENDBRANCH  10  21
TORSDOF 6
ENDMDL
MODEL 7
REMARK VINA RESULT:    -6.542      3.848      6.159
REMARK INTER + INTRA:          -9.777
REMARK INTER:                  -8.709
REMARK INTRA:                  -1.068
REMARK UNBOUND:                -1.131
REMARK SMILES CCCNC(=O)c1nnc2c(-c3c(F)cccc3OC)cccc2c1N
REMARK SMILES IDX 7 1 8 2 9 3 10 4 24 5 25 6 23 7 22 8 21 9 11 10 5 11 4 12
REMARK SMILES IDX 6 13 3 15 2 16 1 17 26 18 12 21 18 22 13 23 17 24 15 25
REMARK SMILES IDX 16 26 14 27 19 28 20 29
REMARK H PARENT 4 14 26 19 26 20
ROOT
ATOM      1  C   UNL     1     142.937  96.161 137.915  1.00  0.00     0.174 A 
ATOM      2  N   UNL     1     144.279  96.175 138.073  1.00  0.00    -0.142 NA
ATOM      3  N   UNL     1     145.076  95.701 137.069  1.00  0.00    -0.149 NA
ATOM      4  C   UNL     1     144.559  95.190 135.933  1.00  0.00     0.103 A 
ATOM      5  C   UNL     1     143.157  95.150 135.744  1.00  0.00     0.028 A 
ATOM      6  C   UNL     1     142.316  95.694 136.751  1.00  0.00     0.075 A 
ATOM      7  C   UNL     1     142.650  94.561 134.559  1.00  0.00     0.013 A 
ATOM      8  C   UNL     1     143.494  94.053 133.578  1.00  0.00     0.002 A 
ATOM      9  C   UNL     1     144.866  94.116 133.760  1.00  0.00     0.011 A 
ATOM     10  C   UNL     1     145.406  94.679 134.930  1.00  0.00     0.017 A 
ENDROOT
BRANCH   1  11
ATOM     11  C   UNL     1     142.167  96.741 139.064  1.00  0.00     0.273 C 
ATOM     12  N   UNL     1     142.599  96.348 140.317  1.00  0.00    -0.351 N 
ATOM     13  O   UNL     1     141.231  97.516 138.886  1.00  0.00    -0.267 OA
ATOM     14  H   UNL     1     143.385  95.704 140.357  1.00  0.00     0.163 HD
BRANCH  12  15
ATOM     15  C   UNL     1     141.969  96.778 141.546  1.00  0.00     0.116 C 
BRANCH  15  16
ATOM     16  C   UNL     1     142.933  97.533 142.459  1.00  0.00     0.018 C 
ATOM     17  C   UNL     1     142.231  98.264 143.594  1.00  0.00     0.006 C 
ENDBRANCH  15  16
ENDBRANCH  12  15
ENDBRANCH   1  11
BRANCH   6  18
ATOM     18  N   UNL     1     140.902  95.592 136.641  1.00  0.00    -0.396 N 
ATOM     19  H   UNL     1     140.581  94.619 136.738  1.00  0.00     0.156 HD
ATOM     20  H   UNL     1     140.394  96.209 137.268  1.00  0.00     0.156 HD
ENDBRANCH   6  18
BRANCH  10  21
ATOM     21  C   UNL     1     146.872  94.719 135.088  1.00  0.00     0.062 A 
ATOM     22  C   UNL     1     147.650  95.774 134.565  1.00  0.00     0.129 A 
ATOM     23  C   UNL     1     147.529  93.679 135.764  1.00  0.00     0.134 A 
ATOM     24  C   UNL     1     149.042  95.765 134.736  1.00  0.00     0.047 A 
ATOM     25  C   UNL     1     148.911  93.671 135.927  1.00  0.00     0.040 A 
ATOM     26  C   UNL     1     149.669  94.715 135.413  1.00  0.00     0.007 A 
ATOM     27  F   UNL     1     146.822  92.663 136.283  1.00  0.00    -0.206 F 
BRANCH  22  28
ATOM     28  O   UNL     1     146.959  96.771 133.921  1.00  0.00    -0.496 OA
ATOM     29  C   UNL     1     147.175  96.918 132.524  1.00  0.00     0.278 C 
ENDBRANCH  22  28
ENDBRANCH  10  21
TORSDOF 6
ENDMDL
MODEL 8
REMARK VINA RESULT:    -6.459      2.844      5.223
REMARK INTER + INTRA:          -9.668
REMARK INTER:                  -8.613
REMARK INTRA:                  -1.054
REMARK UNBOUND:                -1.131
REMARK SMILES CCCNC(=O)c1nnc2c(-c3c(F)cccc3OC)cccc2c1N
REMARK SMILES IDX 7 1 8 2 9 3 10 4 24 5 25 6 23 7 22 8 21 9 11 10 5 11 4 12
REMARK SMILES IDX 6 13 3 15 2 16 1 17 26 18 12 21 18 22 13 23 17 24 15 25
REMARK SMILES IDX 16 26 14 27 19 28 20 29
REMARK H PARENT 4 14 26 19 26 20
ROOT
ATOM      1  C   UNL     1     143.984  95.969 135.655  1.00  0.00     0.174 A 
ATOM      2  N   UNL     1     143.235  95.860 134.535  1.00  0.00    -0.142 NA
ATOM      3  N   UNL     1     141.987  96.416 134.508  1.00  0.00    -0.149 NA
ATOM      4  C   UNL     1     141.467  97.047 135.581  1.00  0.00     0.103 A 
ATOM      5  C   UNL     1     142.222  97.166 136.772  1.00  0.00     0.028 A 
ATOM      6  C   UNL     1     143.544  96.647 136.798  1.00  0.00     0.075 A 
ATOM      7  C   UNL     1     141.624  97.793 137.893  1.00  0.00     0.013 A 
ATOM      8  C   UNL     1     140.335  98.312 137.837  1.00  0.00     0.002 A 
ATOM      9  C   UNL     1     139.611  98.211 136.661  1.00  0.00     0.011 A 
ATOM     10  C   UNL     1     140.165  97.581 135.532  1.00  0.00     0.017 A 
ENDROOT
BRANCH   1  11
ATOM     11  C   UNL     1     145.349  95.354 135.556  1.00  0.00     0.273 C 
ATOM     12  N   UNL     1     146.117  95.802 134.498  1.00  0.00    -0.351 N 
ATOM     13  O   UNL     1     145.741  94.524 136.371  1.00  0.00    -0.267 OA
ATOM     14  H   UNL     1     145.700  96.493 133.880  1.00  0.00     0.163 HD
BRANCH  12  15
ATOM     15  C   UNL     1     147.449  95.310 134.218  1.00  0.00     0.116 C 
BRANCH  15  16
ATOM     16  C   UNL     1     148.452  96.442 134.006  1.00  0.00     0.018 C 
ATOM     17  C   UNL     1     148.174  97.260 132.753  1.00  0.00     0.006 C 
ENDBRANCH  15  16
ENDBRANCH  12  15
ENDBRANCH   1  11
BRANCH   6  18
ATOM     18  N   UNL     1     144.302  96.666 138.000  1.00  0.00    -0.396 N 
ATOM     19  H   UNL     1     145.291  96.893 137.823  1.00  0.00     0.156 HD
ATOM     20  H   UNL     1     143.914  97.264 138.723  1.00  0.00     0.156 HD
ENDBRANCH   6  18
BRANCH  10  21
ATOM     21  C   UNL     1     139.356  97.488 134.302  1.00  0.00     0.062 A 
ATOM     22  C   UNL     1     139.320  98.531 133.352  1.00  0.00     0.129 A 
ATOM     23  C   UNL     1     138.584  96.341 134.061  1.00  0.00     0.134 A 
ATOM     24  C   UNL     1     138.532  98.398 132.199  1.00  0.00     0.047 A 
ATOM     25  C   UNL     1     137.798  96.215 132.919  1.00  0.00     0.040 A 
ATOM     26  C   UNL     1     137.772  97.244 131.987  1.00  0.00     0.007 A 
ATOM     27  F   UNL     1     138.598  95.325 134.937  1.00  0.00    -0.206 F 
BRANCH  22  28
ATOM     28  O   UNL     1     140.101  99.626 133.630  1.00  0.00    -0.496 OA
ATOM     29  C   UNL     1     139.620 100.895 133.205  1.00  0.00     0.278 C 
ENDBRANCH  22  28
ENDBRANCH  10  21
TORSDOF 6
ENDMDL
MODEL 9
REMARK VINA RESULT:    -6.374      3.960      6.491
REMARK INTER + INTRA:          -9.555
REMARK INTER:                  -8.724
REMARK INTRA:                  -0.830
REMARK UNBOUND:                -1.131
REMARK SMILES CCCNC(=O)c1nnc2c(-c3c(F)cccc3OC)cccc2c1N
REMARK SMILES IDX 7 1 8 2 9 3 10 4 24 5 25 6 23 7 22 8 21 9 11 10 5 11 4 12
REMARK SMILES IDX 6 13 3 15 2 16 1 17 26 18 12 21 18 22 13 23 17 24 15 25
REMARK SMILES IDX 16 26 14 27 19 28 20 29
REMARK H PARENT 4 14 26 19 26 20
ROOT
ATOM      1  C   UNL     1     145.158  98.589 142.301  1.00  0.00     0.174 A 
ATOM      2  N   UNL     1     145.289  98.443 140.964  1.00  0.00    -0.142 NA
ATOM      3  N   UNL     1     144.249  97.931 140.241  1.00  0.00    -0.149 NA
ATOM      4  C   UNL     1     143.101  97.536 140.830  1.00  0.00     0.103 A 
ATOM      5  C   UNL     1     142.939  97.664 142.230  1.00  0.00     0.028 A 
ATOM      6  C   UNL     1     143.987  98.250 142.989  1.00  0.00     0.075 A 
ATOM      7  C   UNL     1     141.739  97.193 142.818  1.00  0.00     0.013 A 
ATOM      8  C   UNL     1     140.719  96.640 142.052  1.00  0.00     0.002 A 
ATOM      9  C   UNL     1     140.876  96.540 140.679  1.00  0.00     0.011 A 
ATOM     10  C   UNL     1     142.060  96.981 140.062  1.00  0.00     0.017 A 
ENDROOT
BRANCH   1  11
ATOM     11  C   UNL     1     146.348  99.196 142.983  1.00  0.00     0.273 C 
ATOM     12  N   UNL     1     146.521 100.550 142.764  1.00  0.00    -0.351 N 
ATOM     13  O   UNL     1     147.096  98.526 143.691  1.00  0.00    -0.267 OA
ATOM     14  H   UNL     1     145.845 101.014 142.164  1.00  0.00     0.163 HD
BRANCH  12  15
ATOM     15  C   UNL     1     147.623 101.309 143.313  1.00  0.00     0.116 C 
BRANCH  15  16
ATOM     16  C   UNL     1     147.410 101.661 144.783  1.00  0.00     0.018 C 
ATOM     17  C   UNL     1     148.584 101.268 145.668  1.00  0.00     0.006 C 
ENDBRANCH  15  16
ENDBRANCH  12  15
ENDBRANCH   1  11
BRANCH   6  18
ATOM     18  N   UNL     1     143.901  98.315 144.406  1.00  0.00    -0.396 N 
ATOM     19  H   UNL     1     143.499  97.454 144.803  1.00  0.00     0.156 HD
ATOM     20  H   UNL     1     144.775  98.554 144.862  1.00  0.00     0.156 HD
ENDBRANCH   6  18
BRANCH  10  21
ATOM     21  C   UNL     1     142.190  96.847 138.598  1.00  0.00     0.062 A 
ATOM     22  C   UNL     1     141.506  97.702 137.707  1.00  0.00     0.129 A 
ATOM     23  C   UNL     1     143.003  95.838 138.060  1.00  0.00     0.134 A 
ATOM     24  C   UNL     1     141.657  97.533 136.323  1.00  0.00     0.047 A 
ATOM     25  C   UNL     1     143.147  95.669 136.686  1.00  0.00     0.040 A 
ATOM     26  C   UNL     1     142.473  96.517 135.816  1.00  0.00     0.007 A 
ATOM     27  F   UNL     1     143.676  95.011 138.875  1.00  0.00    -0.206 F 
BRANCH  22  28
ATOM     28  O   UNL     1     140.731  98.679 138.284  1.00  0.00    -0.496 OA
ATOM     29  C   UNL     1     139.342  98.672 137.984  1.00  0.00     0.278 C 
ENDBRANCH  22  28
ENDBRANCH  10  21
TORSDOF 6
ENDMDL
MODEL 10
REMARK VINA RESULT:    -6.232      3.581      5.875
REMARK INTER + INTRA:          -9.367
REMARK INTER:                  -8.313
REMARK INTRA:                  -1.055
REMARK UNBOUND:                -1.131
REMARK SMILES CCCNC(=O)c1nnc2c(-c3c(F)cccc3OC)cccc2c1N
REMARK SMILES IDX 7 1 8 2 9 3 10 4 24 5 25 6 23 7 22 8 21 9 11 10 5 11 4 12
REMARK SMILES IDX 6 13 3 15 2 16 1 17 26 18 12 21 18 22 13 23 17 24 15 25
REMARK SMILES IDX 16 26 14 27 19 28 20 29
REMARK H PARENT 4 14 26 19 26 20
ROOT
ATOM      1  C   UNL     1     142.942  96.185 137.832  1.00  0.00     0.174 A 
ATOM      2  N   UNL     1     144.283  96.345 137.889  1.00  0.00    -0.142 NA
ATOM      3  N   UNL     1     145.052  95.925 136.841  1.00  0.00    -0.149 NA
ATOM      4  C   UNL     1     144.513  95.325 135.759  1.00  0.00     0.103 A 
ATOM      5  C   UNL     1     143.114  95.132 135.676  1.00  0.00     0.028 A 
ATOM      6  C   UNL     1     142.293  95.616 136.730  1.00  0.00     0.075 A 
ATOM      7  C   UNL     1     142.589  94.455 134.547  1.00  0.00     0.013 A 
ATOM      8  C   UNL     1     143.411  94.006 133.519  1.00  0.00     0.002 A 
ATOM      9  C   UNL     1     144.778  94.220 133.597  1.00  0.00     0.011 A 
ATOM     10  C   UNL     1     145.336  94.874 134.709  1.00  0.00     0.017 A 
ENDROOT
BRANCH   1  11
ATOM     11  C   UNL     1     142.198  96.717 139.020  1.00  0.00     0.273 C 
ATOM     12  N   UNL     1     142.721  96.357 140.248  1.00  0.00    -0.351 N 
ATOM     13  O   UNL     1     141.206  97.430 138.892  1.00  0.00    -0.267 OA
ATOM     14  H   UNL     1     143.547  95.765 140.246  1.00  0.00     0.163 HD
BRANCH  12  15
ATOM     15  C   UNL     1     142.130  96.748 141.509  1.00  0.00     0.116 C 
BRANCH  15  16
ATOM     16  C   UNL     1     143.100  97.540 142.383  1.00  0.00     0.018 C 
ATOM     17  C   UNL     1     142.404  98.342 143.474  1.00  0.00     0.006 C 
ENDBRANCH  15  16
ENDBRANCH  12  15
ENDBRANCH   1  11
BRANCH   6  18
ATOM     18  N   UNL     1     140.895  95.363 136.728  1.00  0.00    -0.396 N 
ATOM     19  H   UNL     1     140.688  94.360 136.830  1.00  0.00     0.156 HD
ATOM     20  H   UNL     1     140.375  95.914 137.404  1.00  0.00     0.156 HD
ENDBRANCH   6  18
BRANCH  10  21
ATOM     21  C   UNL     1     146.797  95.073 134.757  1.00  0.00     0.062 A 
ATOM     22  C   UNL     1     147.649  94.184 135.447  1.00  0.00     0.129 A 
ATOM     23  C   UNL     1     147.372  96.179 134.113  1.00  0.00     0.134 A 
ATOM     24  C   UNL     1     149.032  94.417 135.468  1.00  0.00     0.047 A 
ATOM     25  C   UNL     1     148.744  96.411 134.141  1.00  0.00     0.040 A 
ATOM     26  C   UNL     1     149.575  95.529 134.819  1.00  0.00     0.007 A 
ATOM     27  F   UNL     1     146.596  97.043 133.440  1.00  0.00    -0.206 F 
BRANCH  22  28
ATOM     28  O   UNL     1     147.039  93.111 136.051  1.00  0.00    -0.496 OA
ATOM     29  C   UNL     1     147.282  91.825 135.498  1.00  0.00     0.278 C 
ENDBRANCH  22  28
ENDBRANCH  10  21
TORSDOF 6
ENDMDL
MODEL 11
REMARK VINA RESULT:    -6.213      2.975      5.328
REMARK INTER + INTRA:          -9.342
REMARK INTER:                  -8.485
REMARK INTRA:                  -0.857
REMARK UNBOUND:                -1.131
REMARK SMILES CCCNC(=O)c1nnc2c(-c3c(F)cccc3OC)cccc2c1N
REMARK SMILES IDX 7 1 8 2 9 3 10 4 24 5 25 6 23 7 22 8 21 9 11 10 5 11 4 12
REMARK SMILES IDX 6 13 3 15 2 16 1 17 26 18 12 21 18 22 13 23 17 24 15 25
REMARK SMILES IDX 16 26 14 27 19 28 20 29
REMARK H PARENT 4 14 26 19 26 20
ROOT
ATOM      1  C   UNL     1     142.614  96.776 138.445  1.00  0.00     0.174 A 
ATOM      2  N   UNL     1     143.590  95.852 138.300  1.00  0.00    -0.142 NA
ATOM      3  N   UNL     1     144.090  95.598 137.054  1.00  0.00    -0.149 NA
ATOM      4  C   UNL     1     143.616  96.224 135.956  1.00  0.00     0.103 A 
ATOM      5  C   UNL     1     142.586  97.187 136.076  1.00  0.00     0.028 A 
ATOM      6  C   UNL     1     142.096  97.507 137.370  1.00  0.00     0.075 A 
ATOM      7  C   UNL     1     142.081  97.787 134.896  1.00  0.00     0.013 A 
ATOM      8  C   UNL     1     142.590  97.471 133.641  1.00  0.00     0.002 A 
ATOM      9  C   UNL     1     143.614  96.544 133.535  1.00  0.00     0.011 A 
ATOM     10  C   UNL     1     144.130  95.916 134.682  1.00  0.00     0.017 A 
ENDROOT
BRANCH   1  11
ATOM     11  C   UNL     1     142.170  96.998 139.861  1.00  0.00     0.273 C 
ATOM     12  N   UNL     1     143.189  97.046 140.794  1.00  0.00    -0.351 N 
ATOM     13  O   UNL     1     140.985  97.138 140.149  1.00  0.00    -0.267 OA
ATOM     14  H   UNL     1     144.139  96.920 140.452  1.00  0.00     0.163 HD
BRANCH  12  15
ATOM     15  C   UNL     1     142.961  97.224 142.211  1.00  0.00     0.116 C 
BRANCH  15  16
ATOM     16  C   UNL     1     143.861  98.302 142.812  1.00  0.00     0.018 C 
ATOM     17  C   UNL     1     143.195  99.075 143.941  1.00  0.00     0.006 C 
ENDBRANCH  15  16
ENDBRANCH  12  15
ENDBRANCH   1  11
BRANCH   6  18
ATOM     18  N   UNL     1     141.002  98.401 137.525  1.00  0.00    -0.396 N 
ATOM     19  H   UNL     1     140.344  98.339 136.736  1.00  0.00     0.156 HD
ATOM     20  H   UNL     1     140.518  98.312 138.412  1.00  0.00     0.156 HD
ENDBRANCH   6  18
BRANCH  10  21
ATOM     21  C   UNL     1     145.214  94.928 134.524  1.00  0.00     0.062 A 
ATOM     22  C   UNL     1     146.543  95.316 134.247  1.00  0.00     0.129 A 
ATOM     23  C   UNL     1     144.931  93.558 134.635  1.00  0.00     0.134 A 
ATOM     24  C   UNL     1     147.539  94.340 134.100  1.00  0.00     0.047 A 
ATOM     25  C   UNL     1     145.920  92.591 134.483  1.00  0.00     0.040 A 
ATOM     26  C   UNL     1     147.226  92.982 134.216  1.00  0.00     0.007 A 
ATOM     27  F   UNL     1     143.681  93.150 134.905  1.00  0.00    -0.206 F 
BRANCH  22  28
ATOM     28  O   UNL     1     146.769  96.668 134.158  1.00  0.00    -0.496 OA
ATOM     29  C   UNL     1     147.318  97.159 132.942  1.00  0.00     0.278 C 
ENDBRANCH  22  28
ENDBRANCH  10  21
TORSDOF 6
ENDMDL
MODEL 12
REMARK VINA RESULT:    -6.122      2.043      4.219
REMARK INTER + INTRA:          -9.221
REMARK INTER:                  -8.550
REMARK INTRA:                  -0.671
REMARK UNBOUND:                -1.131
REMARK SMILES CCCNC(=O)c1nnc2c(-c3c(F)cccc3OC)cccc2c1N
REMARK SMILES IDX 7 1 8 2 9 3 10 4 24 5 25 6 23 7 22 8 21 9 11 10 5 11 4 12
REMARK SMILES IDX 6 13 3 15 2 16 1 17 26 18 12 21 18 22 13 23 17 24 15 25
REMARK SMILES IDX 16 26 14 27 19 28 20 29
REMARK H PARENT 4 14 26 19 26 20
ROOT
ATOM      1  C   UNL     1     143.197  97.014 137.889  1.00  0.00     0.174 A 
ATOM      2  N   UNL     1     144.302  96.563 137.255  1.00  0.00    -0.142 NA
ATOM      3  N   UNL     1     144.292  96.442 135.895  1.00  0.00    -0.149 NA
ATOM      4  C   UNL     1     143.194  96.731 135.164  1.00  0.00     0.103 A 
ATOM      5  C   UNL     1     142.018  97.193 135.800  1.00  0.00     0.028 A 
ATOM      6  C   UNL     1     142.031  97.382 137.208  1.00  0.00     0.075 A 
ATOM      7  C   UNL     1     140.871  97.440 135.005  1.00  0.00     0.013 A 
ATOM      8  C   UNL     1     140.888  97.265 133.625  1.00  0.00     0.002 A 
ATOM      9  C   UNL     1     142.051  96.835 133.008  1.00  0.00     0.011 A 
ATOM     10  C   UNL     1     143.205  96.564 133.766  1.00  0.00     0.017 A 
ENDROOT
BRANCH   1  11
ATOM     11  C   UNL     1     143.338  97.143 139.376  1.00  0.00     0.273 C 
ATOM     12  N   UNL     1     142.470  96.362 140.117  1.00  0.00    -0.351 N 
ATOM     13  O   UNL     1     144.177  97.884 139.881  1.00  0.00    -0.267 OA
ATOM     14  H   UNL     1     141.814  95.781 139.603  1.00  0.00     0.163 HD
BRANCH  12  15
ATOM     15  C   UNL     1     142.433  96.368 141.563  1.00  0.00     0.116 C 
BRANCH  15  16
ATOM     16  C   UNL     1     141.179  97.046 142.109  1.00  0.00     0.018 C 
ATOM     17  C   UNL     1     141.398  97.708 143.462  1.00  0.00     0.006 C 
ENDBRANCH  15  16
ENDBRANCH  12  15
ENDBRANCH   1  11
BRANCH   6  18
ATOM     18  N   UNL     1     140.845  97.758 137.895  1.00  0.00    -0.396 N 
ATOM     19  H   UNL     1     141.049  98.341 138.718  1.00  0.00     0.156 HD
ATOM     20  H   UNL     1     140.146  98.196 137.303  1.00  0.00     0.156 HD
ENDBRANCH   6  18
BRANCH  10  21
ATOM     21  C   UNL     1     144.419  96.099 133.069  1.00  0.00     0.062 A 
ATOM     22  C   UNL     1     144.694  94.726 132.886  1.00  0.00     0.129 A 
ATOM     23  C   UNL     1     145.344  97.034 132.581  1.00  0.00     0.134 A 
ATOM     24  C   UNL     1     145.864  94.332 132.221  1.00  0.00     0.047 A 
ATOM     25  C   UNL     1     146.508  96.639 131.928  1.00  0.00     0.040 A 
ATOM     26  C   UNL     1     146.768  95.287 131.747  1.00  0.00     0.007 A 
ATOM     27  F   UNL     1     145.114  98.348 132.730  1.00  0.00    -0.206 F 
BRANCH  22  28
ATOM     28  O   UNL     1     143.752  93.853 133.372  1.00  0.00    -0.496 OA
ATOM     29  C   UNL     1     144.224  92.694 134.047  1.00  0.00     0.278 C 
ENDBRANCH  22  28
ENDBRANCH  10  21
TORSDOF 6
ENDMDL
MODEL 13
REMARK VINA RESULT:    -6.110      4.098      7.255
REMARK INTER + INTRA:          -9.206
REMARK INTER:                  -8.625
REMARK INTRA:                  -0.581
REMARK UNBOUND:                -1.131
REMARK SMILES CCCNC(=O)c1nnc2c(-c3c(F)cccc3OC)cccc2c1N
REMARK SMILES IDX 7 1 8 2 9 3 10 4 24 5 25 6 23 7 22 8 21 9 11 10 5 11 4 12
REMARK SMILES IDX 6 13 3 15 2 16 1 17 26 18 12 21 18 22 13 23 17 24 15 25
REMARK SMILES IDX 16 26 14 27 19 28 20 29
REMARK H PARENT 4 14 26 19 26 20
ROOT
ATOM      1  C   UNL     1     144.887  98.879 143.098  1.00  0.00     0.174 A 
ATOM      2  N   UNL     1     144.974  98.515 141.800  1.00  0.00    -0.142 NA
ATOM      3  N   UNL     1     143.917  97.882 141.210  1.00  0.00    -0.149 NA
ATOM      4  C   UNL     1     142.795  97.582 141.897  1.00  0.00     0.103 A 
ATOM      5  C   UNL     1     142.679  97.940 143.261  1.00  0.00     0.028 A 
ATOM      6  C   UNL     1     143.744  98.652 143.874  1.00  0.00     0.075 A 
ATOM      7  C   UNL     1     141.506  97.565 143.962  1.00  0.00     0.013 A 
ATOM      8  C   UNL     1     140.467  96.885 143.336  1.00  0.00     0.002 A 
ATOM      9  C   UNL     1     140.578  96.559 141.993  1.00  0.00     0.011 A 
ATOM     10  C   UNL     1     141.735  96.900 141.269  1.00  0.00     0.017 A 
ENDROOT
BRANCH   1  11
ATOM     11  C   UNL     1     146.091  99.600 143.627  1.00  0.00     0.273 C 
ATOM     12  N   UNL     1     145.840 100.853 144.154  1.00  0.00    -0.351 N 
ATOM     13  O   UNL     1     147.210  99.093 143.596  1.00  0.00    -0.267 OA
ATOM     14  H   UNL     1     144.878 101.182 144.134  1.00  0.00     0.163 HD
BRANCH  12  15
ATOM     15  C   UNL     1     146.874 101.713 144.686  1.00  0.00     0.116 C 
BRANCH  15  16
ATOM     16  C   UNL     1     147.546 102.552 143.602  1.00  0.00     0.018 C 
ATOM     17  C   UNL     1     149.000 102.169 143.365  1.00  0.00     0.006 C 
ENDBRANCH  15  16
ENDBRANCH  12  15
ENDBRANCH   1  11
BRANCH   6  18
ATOM     18  N   UNL     1     143.706  98.950 145.263  1.00  0.00    -0.396 N 
ATOM     19  H   UNL     1     142.838  99.438 145.524  1.00  0.00     0.156 HD
ATOM     20  H   UNL     1     143.868  98.148 145.863  1.00  0.00     0.156 HD
ENDBRANCH   6  18
BRANCH  10  21
ATOM     21  C   UNL     1     141.816  96.525 139.845  1.00  0.00     0.062 A 
ATOM     22  C   UNL     1     142.394  95.307 139.426  1.00  0.00     0.129 A 
ATOM     23  C   UNL     1     141.323  97.399 138.865  1.00  0.00     0.134 A 
ATOM     24  C   UNL     1     142.453  94.996 138.059  1.00  0.00     0.047 A 
ATOM     25  C   UNL     1     141.388  97.091 137.509  1.00  0.00     0.040 A 
ATOM     26  C   UNL     1     141.954  95.888 137.106  1.00  0.00     0.007 A 
ATOM     27  F   UNL     1     140.760  98.563 139.224  1.00  0.00    -0.206 F 
BRANCH  22  28
ATOM     28  O   UNL     1     142.852  94.483 140.424  1.00  0.00    -0.496 OA
ATOM     29  C   UNL     1     141.980  93.455 140.874  1.00  0.00     0.278 C 
ENDBRANCH  22  28
ENDBRANCH  10  21
TORSDOF 6
ENDMDL
MODEL 14
REMARK VINA RESULT:    -6.050      3.734      6.301
REMARK INTER + INTRA:          -9.127
REMARK INTER:                  -8.616
REMARK INTRA:                  -0.511
REMARK UNBOUND:                -1.131
REMARK SMILES CCCNC(=O)c1nnc2c(-c3c(F)cccc3OC)cccc2c1N
REMARK SMILES IDX 7 1 8 2 9 3 10 4 24 5 25 6 23 7 22 8 21 9 11 10 5 11 4 12
REMARK SMILES IDX 6 13 3 15 2 16 1 17 26 18 12 21 18 22 13 23 17 24 15 25
REMARK SMILES IDX 16 26 14 27 19 28 20 29
REMARK H PARENT 4 14 26 19 26 20
ROOT
ATOM      1  C   UNL     1     145.140  98.597 142.299  1.00  0.00     0.174 A 
ATOM      2  N   UNL     1     145.374  98.722 140.974  1.00  0.00    -0.142 NA
ATOM      3  N   UNL     1     144.469  98.215 140.084  1.00  0.00    -0.149 NA
ATOM      4  C   UNL     1     143.359  97.565 140.492  1.00  0.00     0.103 A 
ATOM      5  C   UNL     1     143.094  97.407 141.873  1.00  0.00     0.028 A 
ATOM      6  C   UNL     1     143.993  97.980 142.812  1.00  0.00     0.075 A 
ATOM      7  C   UNL     1     141.944  96.676 142.263  1.00  0.00     0.013 A 
ATOM      8  C   UNL     1     141.068  96.141 141.325  1.00  0.00     0.002 A 
ATOM      9  C   UNL     1     141.322  96.319 139.975  1.00  0.00     0.011 A 
ATOM     10  C   UNL     1     142.462  97.025 139.550  1.00  0.00     0.017 A 
ENDROOT
BRANCH   1  11
ATOM     11  C   UNL     1     146.181  99.224 143.178  1.00  0.00     0.273 C 
ATOM     12  N   UNL     1     146.035 100.584 143.381  1.00  0.00    -0.351 N 
ATOM     13  O   UNL     1     147.082  98.560 143.683  1.00  0.00    -0.267 OA
ATOM     14  H   UNL     1     145.253 101.041 142.920  1.00  0.00     0.163 HD
BRANCH  12  15
ATOM     15  C   UNL     1     146.952 101.372 144.175  1.00  0.00     0.116 C 
BRANCH  15  16
ATOM     16  C   UNL     1     148.226 101.724 143.410  1.00  0.00     0.018 C 
ATOM     17  C   UNL     1     148.614 103.191 143.538  1.00  0.00     0.006 C 
ENDBRANCH  15  16
ENDBRANCH  12  15
ENDBRANCH   1  11
BRANCH   6  18
ATOM     18  N   UNL     1     143.811  97.768 144.205  1.00  0.00    -0.396 N 
ATOM     19  H   UNL     1     142.917  98.158 144.537  1.00  0.00     0.156 HD
ATOM     20  H   UNL     1     143.917  96.801 144.493  1.00  0.00     0.156 HD
ENDBRANCH   6  18
BRANCH  10  21
ATOM     21  C   UNL     1     142.701  97.184 138.103  1.00  0.00     0.062 A 
ATOM     22  C   UNL     1     143.747  96.506 137.441  1.00  0.00     0.129 A 
ATOM     23  C   UNL     1     141.882  98.040 137.351  1.00  0.00     0.134 A 
ATOM     24  C   UNL     1     143.938  96.692 136.064  1.00  0.00     0.047 A 
ATOM     25  C   UNL     1     142.077  98.228 135.986  1.00  0.00     0.040 A 
ATOM     26  C   UNL     1     143.106  97.553 135.341  1.00  0.00     0.007 A 
ATOM     27  F   UNL     1     140.872  98.696 137.944  1.00  0.00    -0.206 F 
BRANCH  22  28
ATOM     28  O   UNL     1     144.513  95.673 138.219  1.00  0.00    -0.496 OA
ATOM     29  C   UNL     1     145.751  95.231 137.679  1.00  0.00     0.278 C 
ENDBRANCH  22  28
ENDBRANCH  10  21
TORSDOF 6
ENDMDL
MODEL 15
REMARK VINA RESULT:    -6.004      2.508      4.615
REMARK INTER + INTRA:          -9.066
REMARK INTER:                  -7.965
REMARK INTRA:                  -1.101
REMARK UNBOUND:                -1.131
REMARK SMILES CCCNC(=O)c1nnc2c(-c3c(F)cccc3OC)cccc2c1N
REMARK SMILES IDX 7 1 8 2 9 3 10 4 24 5 25 6 23 7 22 8 21 9 11 10 5 11 4 12
REMARK SMILES IDX 6 13 3 15 2 16 1 17 26 18 12 21 18 22 13 23 17 24 15 25
REMARK SMILES IDX 16 26 14 27 19 28 20 29
REMARK H PARENT 4 14 26 19 26 20
ROOT
ATOM      1  C   UNL     1     143.902  96.033 135.557  1.00  0.00     0.174 A 
ATOM      2  N   UNL     1     143.421  96.274 134.317  1.00  0.00    -0.142 NA
ATOM      3  N   UNL     1     142.267  96.991 134.174  1.00  0.00    -0.149 NA
ATOM      4  C   UNL     1     141.575  97.443 135.240  1.00  0.00     0.103 A 
ATOM      5  C   UNL     1     142.047  97.197 136.551  1.00  0.00     0.028 A 
ATOM      6  C   UNL     1     143.276  96.504 136.717  1.00  0.00     0.075 A 
ATOM      7  C   UNL     1     141.268  97.645 137.647  1.00  0.00     0.013 A 
ATOM      8  C   UNL     1     140.077  98.338 137.460  1.00  0.00     0.002 A 
ATOM      9  C   UNL     1     139.633  98.596 136.173  1.00  0.00     0.011 A 
ATOM     10  C   UNL     1     140.372  98.152 135.061  1.00  0.00     0.017 A 
ENDROOT
BRANCH   1  11
ATOM     11  C   UNL     1     145.193  95.270 135.589  1.00  0.00     0.273 C 
ATOM     12  N   UNL     1     145.151  94.022 134.996  1.00  0.00    -0.351 N 
ATOM     13  O   UNL     1     146.206  95.741 136.098  1.00  0.00    -0.267 OA
ATOM     14  H   UNL     1     144.262  93.725 134.600  1.00  0.00     0.163 HD
BRANCH  12  15
ATOM     15  C   UNL     1     146.285  93.125 134.950  1.00  0.00     0.116 C 
BRANCH  15  16
ATOM     16  C   UNL     1     146.000  91.872 134.125  1.00  0.00     0.018 C 
ATOM     17  C   UNL     1     144.569  91.375 134.268  1.00  0.00     0.006 C 
ENDBRANCH  15  16
ENDBRANCH  12  15
ENDBRANCH   1  11
BRANCH   6  18
ATOM     18  N   UNL     1     143.739  96.158 138.015  1.00  0.00    -0.396 N 
ATOM     19  H   UNL     1     144.232  95.255 138.016  1.00  0.00     0.156 HD
ATOM     20  H   UNL     1     144.297  96.879 138.460  1.00  0.00     0.156 HD
ENDBRANCH   6  18
BRANCH  10  21
ATOM     21  C   UNL     1     139.859  98.440 133.708  1.00  0.00     0.062 A 
ATOM     22  C   UNL     1     139.111  97.492 132.977  1.00  0.00     0.129 A 
ATOM     23  C   UNL     1     140.125  99.681 133.110  1.00  0.00     0.134 A 
ATOM     24  C   UNL     1     138.648  97.809 131.691  1.00  0.00     0.047 A 
ATOM     25  C   UNL     1     139.670  99.991 131.832  1.00  0.00     0.040 A 
ATOM     26  C   UNL     1     138.930  99.054 131.122  1.00  0.00     0.007 A 
ATOM     27  F   UNL     1     140.827 100.611 133.777  1.00  0.00    -0.206 F 
BRANCH  22  28
ATOM     28  O   UNL     1     138.869  96.297 133.610  1.00  0.00    -0.496 OA
ATOM     29  C   UNL     1     139.444  95.129 133.040  1.00  0.00     0.278 C 
ENDBRANCH  22  28
ENDBRANCH  10  21
TORSDOF 6
ENDMDL
MODEL 16
REMARK VINA RESULT:    -5.907      1.887      2.636
REMARK INTER + INTRA:          -8.937
REMARK INTER:                  -8.141
REMARK INTRA:                  -0.796
REMARK UNBOUND:                -1.131
REMARK SMILES CCCNC(=O)c1nnc2c(-c3c(F)cccc3OC)cccc2c1N
REMARK SMILES IDX 7 1 8 2 9 3 10 4 24 5 25 6 23 7 22 8 21 9 11 10 5 11 4 12
REMARK SMILES IDX 6 13 3 15 2 16 1 17 26 18 12 21 18 22 13 23 17 24 15 25
REMARK SMILES IDX 16 26 14 27 19 28 20 29
REMARK H PARENT 4 14 26 19 26 20
ROOT
ATOM      1  C   UNL     1     142.055  96.552 137.227  1.00  0.00     0.174 A 
ATOM      2  N   UNL     1     141.048  95.890 136.615  1.00  0.00    -0.142 NA
ATOM      3  N   UNL     1     140.665  96.267 135.359  1.00  0.00    -0.149 NA
ATOM      4  C   UNL     1     141.245  97.306 134.722  1.00  0.00     0.103 A 
ATOM      5  C   UNL     1     142.293  98.026 135.342  1.00  0.00     0.028 A 
ATOM      6  C   UNL     1     142.744  97.609 136.623  1.00  0.00     0.075 A 
ATOM      7  C   UNL     1     142.843  99.141 134.662  1.00  0.00     0.013 A 
ATOM      8  C   UNL     1     142.398  99.519 133.400  1.00  0.00     0.002 A 
ATOM      9  C   UNL     1     141.387  98.794 132.789  1.00  0.00     0.011 A 
ATOM     10  C   UNL     1     140.805  97.692 133.441  1.00  0.00     0.017 A 
ENDROOT
BRANCH   1  11
ATOM     11  C   UNL     1     142.414  96.025 138.585  1.00  0.00     0.273 C 
ATOM     12  N   UNL     1     141.557  96.396 139.603  1.00  0.00    -0.351 N 
ATOM     13  O   UNL     1     143.396  95.307 138.757  1.00  0.00    -0.267 OA
ATOM     14  H   UNL     1     140.771  96.992 139.355  1.00  0.00     0.163 HD
BRANCH  12  15
ATOM     15  C   UNL     1     141.749  96.012 140.984  1.00  0.00     0.116 C 
BRANCH  15  16
ATOM     16  C   UNL     1     142.282  97.160 141.837  1.00  0.00     0.018 C 
ATOM     17  C   UNL     1     141.400  97.473 143.037  1.00  0.00     0.006 C 
ENDBRANCH  15  16
ENDBRANCH  12  15
ENDBRANCH   1  11
BRANCH   6  18
ATOM     18  N   UNL     1     143.732  98.359 137.317  1.00  0.00    -0.396 N 
ATOM     19  H   UNL     1     144.671  97.956 137.198  1.00  0.00     0.156 HD
ATOM     20  H   UNL     1     143.729  99.350 137.097  1.00  0.00     0.156 HD
ENDBRANCH   6  18
BRANCH  10  21
ATOM     21  C   UNL     1     139.725  96.954 132.759  1.00  0.00     0.062 A 
ATOM     22  C   UNL     1     138.363  97.187 133.049  1.00  0.00     0.129 A 
ATOM     23  C   UNL     1     140.043  95.979 131.801  1.00  0.00     0.134 A 
ATOM     24  C   UNL     1     137.371  96.457 132.378  1.00  0.00     0.047 A 
ATOM     25  C   UNL     1     139.057  95.251 131.142  1.00  0.00     0.040 A 
ATOM     26  C   UNL     1     137.719  95.491 131.430  1.00  0.00     0.007 A 
ATOM     27  F   UNL     1     141.326  95.733 131.493  1.00  0.00    -0.206 F 
BRANCH  22  28
ATOM     28  O   UNL     1     138.104  98.158 133.986  1.00  0.00    -0.496 OA
ATOM     29  C   UNL     1     137.902  99.483 133.513  1.00  0.00     0.278 C 
ENDBRANCH  22  28
ENDBRANCH  10  21
TORSDOF 6
ENDMDL
MODEL 17
REMARK VINA RESULT:    -5.867      3.101      4.470
REMARK INTER + INTRA:          -8.885
REMARK INTER:                  -7.868
REMARK INTRA:                  -1.017
REMARK UNBOUND:                -1.131
REMARK SMILES CCCNC(=O)c1nnc2c(-c3c(F)cccc3OC)cccc2c1N
REMARK SMILES IDX 7 1 8 2 9 3 10 4 24 5 25 6 23 7 22 8 21 9 11 10 5 11 4 12
REMARK SMILES IDX 6 13 3 15 2 16 1 17 26 18 12 21 18 22 13 23 17 24 15 25
REMARK SMILES IDX 16 26 14 27 19 28 20 29
REMARK H PARENT 4 14 26 19 26 20
ROOT
ATOM      1  C   UNL     1     144.645  95.533 135.720  1.00  0.00     0.174 A 
ATOM      2  N   UNL     1     144.240  96.822 135.678  1.00  0.00    -0.142 NA
ATOM      3  N   UNL     1     143.071  97.137 135.044  1.00  0.00    -0.149 NA
ATOM      4  C   UNL     1     142.321  96.198 134.430  1.00  0.00     0.103 A 
ATOM      5  C   UNL     1     142.725  94.842 134.446  1.00  0.00     0.028 A 
ATOM      6  C   UNL     1     143.906  94.489 135.152  1.00  0.00     0.075 A 
ATOM      7  C   UNL     1     141.937  93.893 133.749  1.00  0.00     0.013 A 
ATOM      8  C   UNL     1     140.774  94.260 133.081  1.00  0.00     0.002 A 
ATOM      9  C   UNL     1     140.373  95.586 133.090  1.00  0.00     0.011 A 
ATOM     10  C   UNL     1     141.138  96.559 133.757  1.00  0.00     0.017 A 
ENDROOT
BRANCH   1  11
ATOM     11  C   UNL     1     145.920  95.303 136.475  1.00  0.00     0.273 C 
ATOM     12  N   UNL     1     147.070  95.346 135.709  1.00  0.00    -0.351 N 
ATOM     13  O   UNL     1     145.924  95.104 137.687  1.00  0.00    -0.267 OA
ATOM     14  H   UNL     1     146.959  95.520 134.713  1.00  0.00     0.163 HD
BRANCH  12  15
ATOM     15  C   UNL     1     148.393  95.122 136.248  1.00  0.00     0.116 C 
BRANCH  15  16
ATOM     16  C   UNL     1     149.056  96.416 136.717  1.00  0.00     0.018 C 
ATOM     17  C   UNL     1     149.213  96.492 138.229  1.00  0.00     0.006 C 
ENDBRANCH  15  16
ENDBRANCH  12  15
ENDBRANCH   1  11
BRANCH   6  18
ATOM     18  N   UNL     1     144.394  93.154 135.117  1.00  0.00    -0.396 N 
ATOM     19  H   UNL     1     145.028  93.001 134.320  1.00  0.00     0.156 HD
ATOM     20  H   UNL     1     144.819  92.847 135.986  1.00  0.00     0.156 HD
ENDBRANCH   6  18
BRANCH  10  21
ATOM     21  C   UNL     1     140.680  97.961 133.734  1.00  0.00     0.062 A 
ATOM     22  C   UNL     1     139.898  98.508 134.774  1.00  0.00     0.129 A 
ATOM     23  C   UNL     1     141.012  98.786 132.648  1.00  0.00     0.134 A 
ATOM     24  C   UNL     1     139.482  99.845 134.706  1.00  0.00     0.047 A 
ATOM     25  C   UNL     1     140.593 100.111 132.580  1.00  0.00     0.040 A 
ATOM     26  C   UNL     1     139.827 100.642 133.610  1.00  0.00     0.007 A 
ATOM     27  F   UNL     1     141.761  98.305 131.644  1.00  0.00    -0.206 F 
BRANCH  22  28
ATOM     28  O   UNL     1     139.609  97.663 135.818  1.00  0.00    -0.496 OA
ATOM     29  C   UNL     1     140.091  98.028 137.105  1.00  0.00     0.278 C 
ENDBRANCH  22  28
ENDBRANCH  10  21
TORSDOF 6
ENDMDL
MODEL 18
REMARK VINA RESULT:    -5.848      3.620      4.790
REMARK INTER + INTRA:          -8.860
REMARK INTER:                  -7.893
REMARK INTRA:                  -0.967
REMARK UNBOUND:                -1.131
REMARK SMILES CCCNC(=O)c1nnc2c(-c3c(F)cccc3OC)cccc2c1N
REMARK SMILES IDX 7 1 8 2 9 3 10 4 24 5 25 6 23 7 22 8 21 9 11 10 5 11 4 12
REMARK SMILES IDX 6 13 3 15 2 16 1 17 26 18 12 21 18 22 13 23 17 24 15 25
REMARK SMILES IDX 16 26 14 27 19 28 20 29
REMARK H PARENT 4 14 26 19 26 20
ROOT
ATOM      1  C   UNL     1     144.687  95.457 135.794  1.00  0.00     0.174 A 
ATOM      2  N   UNL     1     144.256  96.738 135.763  1.00  0.00    -0.142 NA
ATOM      3  N   UNL     1     143.107  97.042 135.090  1.00  0.00    -0.149 NA
ATOM      4  C   UNL     1     142.403  96.101 134.426  1.00  0.00     0.103 A 
ATOM      5  C   UNL     1     142.836  94.754 134.429  1.00  0.00     0.028 A 
ATOM      6  C   UNL     1     143.996  94.410 135.174  1.00  0.00     0.075 A 
ATOM      7  C   UNL     1     142.098  93.804 133.680  1.00  0.00     0.013 A 
ATOM      8  C   UNL     1     140.955  94.161 132.974  1.00  0.00     0.002 A 
ATOM      9  C   UNL     1     140.524  95.478 132.995  1.00  0.00     0.011 A 
ATOM     10  C   UNL     1     141.240  96.452 133.713  1.00  0.00     0.017 A 
ENDROOT
BRANCH   1  11
ATOM     11  C   UNL     1     145.937  95.238 136.594  1.00  0.00     0.273 C 
ATOM     12  N   UNL     1     147.116  95.340 135.880  1.00  0.00    -0.351 N 
ATOM     13  O   UNL     1     145.895  94.997 137.798  1.00  0.00    -0.267 OA
ATOM     14  H   UNL     1     147.041  95.544 134.887  1.00  0.00     0.163 HD
BRANCH  12  15
ATOM     15  C   UNL     1     148.421  95.134 136.468  1.00  0.00     0.116 C 
BRANCH  15  16
ATOM     16  C   UNL     1     149.365  96.307 136.209  1.00  0.00     0.018 C 
ATOM     17  C   UNL     1     149.434  96.705 134.741  1.00  0.00     0.006 C 
ENDBRANCH  15  16
ENDBRANCH  12  15
ENDBRANCH   1  11
BRANCH   6  18
ATOM     18  N   UNL     1     144.514  93.088 135.130  1.00  0.00    -0.396 N 
ATOM     19  H   UNL     1     145.534  93.082 134.992  1.00  0.00     0.156 HD
ATOM     20  H   UNL     1     144.250  92.514 135.925  1.00  0.00     0.156 HD
ENDBRANCH   6  18
BRANCH  10  21
ATOM     21  C   UNL     1     140.753  97.844 133.702  1.00  0.00     0.062 A 
ATOM     22  C   UNL     1     141.234  98.795 132.776  1.00  0.00     0.129 A 
ATOM     23  C   UNL     1     139.793  98.255 134.639  1.00  0.00     0.134 A 
ATOM     24  C   UNL     1     140.744 100.109 132.806  1.00  0.00     0.047 A 
ATOM     25  C   UNL     1     139.313  99.561 134.671  1.00  0.00     0.040 A 
ATOM     26  C   UNL     1     139.788 100.489 133.753  1.00  0.00     0.007 A 
ATOM     27  F   UNL     1     139.306  97.378 135.531  1.00  0.00    -0.206 F 
BRANCH  22  28
ATOM     28  O   UNL     1     142.164  98.341 131.873  1.00  0.00    -0.496 OA
ATOM     29  C   UNL     1     143.474  98.884 131.957  1.00  0.00     0.278 C 
ENDBRANCH  22  28
ENDBRANCH  10  21
TORSDOF 6
ENDMDL
MODEL 19
REMARK VINA RESULT:    -5.838      3.363      7.202
REMARK INTER + INTRA:          -8.846
REMARK INTER:                  -7.964
REMARK INTRA:                  -0.882
REMARK UNBOUND:                -1.131
REMARK SMILES CCCNC(=O)c1nnc2c(-c3c(F)cccc3OC)cccc2c1N
REMARK SMILES IDX 7 1 8 2 9 3 10 4 24 5 25 6 23 7 22 8 21 9 11 10 5 11 4 12
REMARK SMILES IDX 6 13 3 15 2 16 1 17 26 18 12 21 18 22 13 23 17 24 15 25
REMARK SMILES IDX 16 26 14 27 19 28 20 29
REMARK H PARENT 4 14 26 19 26 20
ROOT
ATOM      1  C   UNL     1     139.906  97.940 133.886  1.00  0.00     0.174 A 
ATOM      2  N   UNL     1     140.767  97.224 133.129  1.00  0.00    -0.142 NA
ATOM      3  N   UNL     1     141.907  96.730 133.698  1.00  0.00    -0.149 NA
ATOM      4  C   UNL     1     142.213  96.961 134.992  1.00  0.00     0.103 A 
ATOM      5  C   UNL     1     141.337  97.717 135.807  1.00  0.00     0.028 A 
ATOM      6  C   UNL     1     140.119  98.188 135.247  1.00  0.00     0.075 A 
ATOM      7  C   UNL     1     141.716  97.980 137.146  1.00  0.00     0.013 A 
ATOM      8  C   UNL     1     142.905  97.492 137.678  1.00  0.00     0.002 A 
ATOM      9  C   UNL     1     143.746  96.733 136.880  1.00  0.00     0.011 A 
ATOM     10  C   UNL     1     143.411  96.465 135.541  1.00  0.00     0.017 A 
ENDROOT
BRANCH   1  11
ATOM     11  C   UNL     1     138.673  98.398 133.166  1.00  0.00     0.273 C 
ATOM     12  N   UNL     1     138.460  97.807 131.934  1.00  0.00    -0.351 N 
ATOM     13  O   UNL     1     137.913  99.230 133.655  1.00  0.00    -0.267 OA
ATOM     14  H   UNL     1     139.148  97.128 131.619  1.00  0.00     0.163 HD
BRANCH  12  15
ATOM     15  C   UNL     1     137.343  98.137 131.077  1.00  0.00     0.116 C 
BRANCH  15  16
ATOM     16  C   UNL     1     136.621  96.894 130.561  1.00  0.00     0.018 C 
ATOM     17  C   UNL     1     136.703  95.714 131.519  1.00  0.00     0.006 C 
ENDBRANCH  15  16
ENDBRANCH  12  15
ENDBRANCH   1  11
BRANCH   6  18
ATOM     18  N   UNL     1     139.255  99.025 136.004  1.00  0.00    -0.396 N 
ATOM     19  H   UNL     1     139.060  99.911 135.517  1.00  0.00     0.156 HD
ATOM     20  H   UNL     1     138.395  98.573 136.298  1.00  0.00     0.156 HD
ENDBRANCH   6  18
BRANCH  10  21
ATOM     21  C   UNL     1     144.340  95.661 134.724  1.00  0.00     0.062 A 
ATOM     22  C   UNL     1     145.280  96.259 133.857  1.00  0.00     0.129 A 
ATOM     23  C   UNL     1     144.291  94.260 134.789  1.00  0.00     0.134 A 
ATOM     24  C   UNL     1     146.139  95.452 133.097  1.00  0.00     0.047 A 
ATOM     25  C   UNL     1     145.141  93.462 134.028  1.00  0.00     0.040 A 
ATOM     26  C   UNL     1     146.067  94.059 133.181  1.00  0.00     0.007 A 
ATOM     27  F   UNL     1     143.416  93.655 135.606  1.00  0.00    -0.206 F 
BRANCH  22  28
ATOM     28  O   UNL     1     145.295  97.632 133.839  1.00  0.00    -0.496 OA
ATOM     29  C   UNL     1     144.772  98.274 132.683  1.00  0.00     0.278 C 
ENDBRANCH  22  28
ENDBRANCH  10  21
TORSDOF 6
ENDMDL
MODEL 20
REMARK VINA RESULT:    -5.821      2.614      4.823
REMARK INTER + INTRA:          -8.825
REMARK INTER:                  -7.953
REMARK INTRA:                  -0.872
REMARK UNBOUND:                -1.131
REMARK SMILES CCCNC(=O)c1nnc2c(-c3c(F)cccc3OC)cccc2c1N
REMARK SMILES IDX 7 1 8 2 9 3 10 4 24 5 25 6 23 7 22 8 21 9 11 10 5 11 4 12
REMARK SMILES IDX 6 13 3 15 2 16 1 17 26 18 12 21 18 22 13 23 17 24 15 25
REMARK SMILES IDX 16 26 14 27 19 28 20 29
REMARK H PARENT 4 14 26 19 26 20
ROOT
ATOM      1  C   UNL     1     144.518  95.941 135.195  1.00  0.00     0.174 A 
ATOM      2  N   UNL     1     143.734  96.103 134.106  1.00  0.00    -0.142 NA
ATOM      3  N   UNL     1     142.529  96.733 134.237  1.00  0.00    -0.149 NA
ATOM      4  C   UNL     1     142.084  97.174 135.433  1.00  0.00     0.103 A 
ATOM      5  C   UNL     1     142.877  97.007 136.592  1.00  0.00     0.028 A 
ATOM      6  C   UNL     1     144.159  96.408 136.464  1.00  0.00     0.075 A 
ATOM      7  C   UNL     1     142.355  97.439 137.837  1.00  0.00     0.013 A 
ATOM      8  C   UNL     1     141.105  98.040 137.935  1.00  0.00     0.002 A 
ATOM      9  C   UNL     1     140.345  98.221 136.791  1.00  0.00     0.011 A 
ATOM     10  C   UNL     1     140.822  97.791 135.541  1.00  0.00     0.017 A 
ENDROOT
BRANCH   1  11
ATOM     11  C   UNL     1     145.832  95.271 134.923  1.00  0.00     0.273 C 
ATOM     12  N   UNL     1     146.881  96.128 134.649  1.00  0.00    -0.351 N 
ATOM     13  O   UNL     1     145.951  94.049 134.959  1.00  0.00    -0.267 OA
ATOM     14  H   UNL     1     146.679  97.124 134.646  1.00  0.00     0.163 HD
BRANCH  12  15
ATOM     15  C   UNL     1     148.218  95.673 134.335  1.00  0.00     0.116 C 
BRANCH  15  16
ATOM     16  C   UNL     1     149.256  96.193 135.328  1.00  0.00     0.018 C 
ATOM     17  C   UNL     1     149.935  97.475 134.866  1.00  0.00     0.006 C 
ENDBRANCH  15  16
ENDBRANCH  12  15
ENDBRANCH   1  11
BRANCH   6  18
ATOM     18  N   UNL     1     144.948  96.141 137.616  1.00  0.00    -0.396 N 
ATOM     19  H   UNL     1     145.122  96.995 138.164  1.00  0.00     0.156 HD
ATOM     20  H   UNL     1     144.583  95.398 138.203  1.00  0.00     0.156 HD
ENDBRANCH   6  18
BRANCH  10  21
ATOM     21  C   UNL     1     139.976  97.994 134.349  1.00  0.00     0.062 A 
ATOM     22  C   UNL     1     139.083  97.001 133.891  1.00  0.00     0.129 A 
ATOM     23  C   UNL     1     140.059  99.197 133.632  1.00  0.00     0.134 A 
ATOM     24  C   UNL     1     138.303  97.238 132.750  1.00  0.00     0.047 A 
ATOM     25  C   UNL     1     139.287  99.427 132.497  1.00  0.00     0.040 A 
ATOM     26  C   UNL     1     138.407  98.446 132.056  1.00  0.00     0.007 A 
ATOM     27  F   UNL     1     140.890 100.168 134.042  1.00  0.00    -0.206 F 
BRANCH  22  28
ATOM     28  O   UNL     1     139.033  95.846 134.633  1.00  0.00    -0.496 OA
ATOM     29  C   UNL     1     139.684  94.700 134.102  1.00  0.00     0.278 C 
ENDBRANCH  22  28
ENDBRANCH  10  21
TORSDOF 6
ENDMDL
