MODEL 1
REMARK VINA RESULT:    -9.867      0.000      0.000
REMARK INTER + INTRA:         -11.342
REMARK INTER:                 -11.020
REMARK INTRA:                  -0.322
REMARK UNBOUND:                -0.322
REMARK SMILES O=C(N[C@H]1CN2CCC1CC2)c1cc2cccc(Cl)c2s1
REMARK SMILES IDX 12 1 13 2 14 3 20 4 18 5 17 6 16 7 15 8 21 9 19 10 2 11 3 12
REMARK SMILES IDX 1 13 4 15 9 16 5 17 8 18 10 19 6 20 7 21 11 22
REMARK H PARENT 3 14
ROOT
ATOM      1  C   UNL     1     143.907 138.492  90.706  1.00  0.00     0.093 A 
ATOM      2  C   UNL     1     143.417 137.261  90.982  1.00  0.00     0.034 A 
ATOM      3  C   UNL     1     144.319 136.213  91.366  1.00  0.00    -0.005 A 
ATOM      4  C   UNL     1     145.693 136.634  91.409  1.00  0.00     0.054 A 
ATOM      5  C   UNL     1     146.671 135.735  91.762  1.00  0.00     0.058 A 
ATOM      6  C   UNL     1     146.323 134.417  92.077  1.00  0.00     0.022 A 
ATOM      7  C   UNL     1     144.979 134.009  92.032  1.00  0.00     0.002 A 
ATOM      8  C   UNL     1     143.986 134.920  91.674  1.00  0.00     0.010 A 
ATOM      9  S   UNL     1     145.630 138.387  90.931  1.00  0.00    -0.128 S 
ATOM     10  Cl  UNL     1     148.378 136.246  91.819  1.00  0.00    -0.083 Cl
ENDROOT
BRANCH   1  11
ATOM     11  C   UNL     1     143.080 139.712  90.283  1.00  0.00     0.261 C 
ATOM     12  N   UNL     1     141.635 139.627  90.191  1.00  0.00    -0.347 N 
ATOM     13  O   UNL     1     143.628 140.730  90.026  1.00  0.00    -0.268 OA
ATOM     14  H   UNL     1     141.173 138.784  90.401  1.00  0.00     0.164 HD
BRANCH  12  15
ATOM     15  C   UNL     1     140.861 140.821  89.780  1.00  0.00     0.099 C 
ATOM     16  C   UNL     1     139.611 140.889  90.531  1.00  0.00     0.015 C 
ATOM     17  C   UNL     1     140.517 140.732  88.280  1.00  0.00     0.109 C 
ATOM     18  C   UNL     1     138.865 142.029  90.076  1.00  0.00     0.021 C 
ATOM     19  C   UNL     1     138.835 139.685  90.242  1.00  0.00     0.021 C 
ATOM     20  N   UNL     1     139.136 140.773  88.074  1.00  0.00    -0.301 NA
ATOM     21  C   UNL     1     138.606 141.930  88.602  1.00  0.00     0.085 C 
ATOM     22  C   UNL     1     138.528 139.654  88.696  1.00  0.00     0.085 C 
ENDBRANCH  12  15
ENDBRANCH   1  11
TORSDOF 2
ENDMDL
MODEL 2
REMARK VINA RESULT:    -9.116      1.324      1.872
REMARK INTER + INTRA:         -10.504
REMARK INTER:                 -10.201
REMARK INTRA:                  -0.303
REMARK UNBOUND:                -0.322
REMARK SMILES O=C(N[C@H]1CN2CCC1CC2)c1cc2cccc(Cl)c2s1
REMARK SMILES IDX 12 1 13 2 14 3 20 4 18 5 17 6 16 7 15 8 21 9 19 10 2 11 3 12
REMARK SMILES IDX 1 13 4 15 9 16 5 17 8 18 10 19 6 20 7 21 11 22
REMARK H PARENT 3 14
ROOT
ATOM      1  C   UNL     1     144.210 138.673  90.665  1.00  0.00     0.093 A 
ATOM      2  C   UNL     1     145.546 138.729  90.872  1.00  0.00     0.034 A 
ATOM      3  C   UNL     1     146.242 137.555  91.315  1.00  0.00    -0.005 A 
ATOM      4  C   UNL     1     145.381 136.416  91.486  1.00  0.00     0.054 A 
ATOM      5  C   UNL     1     145.910 135.219  91.906  1.00  0.00     0.058 A 
ATOM      6  C   UNL     1     147.281 135.116  92.164  1.00  0.00     0.022 A 
ATOM      7  C   UNL     1     148.119 136.232  91.996  1.00  0.00     0.002 A 
ATOM      8  C   UNL     1     147.584 137.448  91.570  1.00  0.00     0.010 A 
ATOM      9  S   UNL     1     143.734 137.040  91.038  1.00  0.00    -0.128 S 
ATOM     10  Cl  UNL     1     144.852 133.800  92.123  1.00  0.00    -0.083 Cl
ENDROOT
BRANCH   1  11
ATOM     11  C   UNL     1     143.325 139.833  90.197  1.00  0.00     0.261 C 
ATOM     12  N   UNL     1     141.892 139.660  90.062  1.00  0.00    -0.347 N 
ATOM     13  O   UNL     1     143.818 140.879  89.940  1.00  0.00    -0.268 OA
ATOM     14  H   UNL     1     141.475 138.794  90.271  1.00  0.00     0.164 HD
BRANCH  12  15
ATOM     15  C   UNL     1     141.060 140.798  89.607  1.00  0.00     0.099 C 
ATOM     16  C   UNL     1     139.846 140.883  90.413  1.00  0.00     0.015 C 
ATOM     17  C   UNL     1     140.649 140.593  88.136  1.00  0.00     0.109 C 
ATOM     18  C   UNL     1     139.043 141.966  89.917  1.00  0.00     0.021 C 
ATOM     19  C   UNL     1     139.096 139.640  90.248  1.00  0.00     0.021 C 
ATOM     20  N   UNL     1     139.259 140.578  87.997  1.00  0.00    -0.301 NA
ATOM     21  C   UNL     1     138.717 141.755  88.468  1.00  0.00     0.085 C 
ATOM     22  C   UNL     1     138.718 139.490  88.725  1.00  0.00     0.085 C 
ENDBRANCH  12  15
ENDBRANCH   1  11
TORSDOF 2
ENDMDL
MODEL 3
REMARK VINA RESULT:    -7.980      1.779      2.265
REMARK INTER + INTRA:          -9.234
REMARK INTER:                  -8.921
REMARK INTRA:                  -0.313
REMARK UNBOUND:                -0.322
REMARK SMILES O=C(N[C@H]1CN2CCC1CC2)c1cc2cccc(Cl)c2s1
REMARK SMILES IDX 12 1 13 2 14 3 20 4 18 5 17 6 16 7 15 8 21 9 19 10 2 11 3 12
REMARK SMILES IDX 1 13 4 15 9 16 5 17 8 18 10 19 6 20 7 21 11 22
REMARK H PARENT 3 14
ROOT
ATOM      1  C   UNL     1     142.373 137.017  90.891  1.00  0.00     0.093 A 
ATOM      2  C   UNL     1     142.751 135.743  91.145  1.00  0.00     0.034 A 
ATOM      3  C   UNL     1     144.111 135.470  91.514  1.00  0.00    -0.005 A 
ATOM      4  C   UNL     1     144.932 136.650  91.570  1.00  0.00     0.054 A 
ATOM      5  C   UNL     1     146.258 136.542  91.911  1.00  0.00     0.058 A 
ATOM      6  C   UNL     1     146.802 135.287  92.203  1.00  0.00     0.022 A 
ATOM      7  C   UNL     1     145.998 134.136  92.146  1.00  0.00     0.002 A 
ATOM      8  C   UNL     1     144.650 134.244  91.799  1.00  0.00     0.010 A 
ATOM      9  S   UNL     1     143.795 137.996  91.120  1.00  0.00    -0.128 S 
ATOM     10  Cl  UNL     1     147.285 137.998  91.983  1.00  0.00    -0.083 Cl
ENDROOT
BRANCH   1  11
ATOM     11  C   UNL     1     140.967 137.471  90.485  1.00  0.00     0.261 C 
ATOM     12  N   UNL     1     140.665 138.880  90.323  1.00  0.00    -0.347 N 
ATOM     13  O   UNL     1     140.120 136.663  90.306  1.00  0.00    -0.268 OA
ATOM     14  H   UNL     1     141.362 139.557  90.472  1.00  0.00     0.164 HD
BRANCH  12  15
ATOM     15  C   UNL     1     139.297 139.291  89.930  1.00  0.00     0.099 C 
ATOM     16  C   UNL     1     139.270 139.649  88.515  1.00  0.00     0.015 C 
ATOM     17  C   UNL     1     138.864 140.524  90.748  1.00  0.00     0.109 C 
ATOM     18  C   UNL     1     137.943 140.086  88.180  1.00  0.00     0.021 C 
ATOM     19  C   UNL     1     140.189 140.765  88.306  1.00  0.00     0.021 C 
ATOM     20  N   UNL     1     138.547 141.599  89.913  1.00  0.00    -0.301 NA
ATOM     21  C   UNL     1     137.541 141.247  89.040  1.00  0.00     0.085 C 
ATOM     22  C   UNL     1     139.694 141.983  89.175  1.00  0.00     0.085 C 
ENDBRANCH  12  15
ENDBRANCH   1  11
TORSDOF 2
ENDMDL
MODEL 4
REMARK VINA RESULT:    -7.624      3.913      7.996
REMARK INTER + INTRA:          -8.837
REMARK INTER:                  -8.520
REMARK INTRA:                  -0.317
REMARK UNBOUND:                -0.322
REMARK SMILES O=C(N[C@H]1CN2CCC1CC2)c1cc2cccc(Cl)c2s1
REMARK SMILES IDX 12 1 13 2 14 3 20 4 18 5 17 6 16 7 15 8 21 9 19 10 2 11 3 12
REMARK SMILES IDX 1 13 4 15 9 16 5 17 8 18 10 19 6 20 7 21 11 22
REMARK H PARENT 3 14
ROOT
ATOM      1  C   UNL     1     144.117 138.586  91.375  1.00  0.00     0.093 A 
ATOM      2  C   UNL     1     143.180 137.621  91.228  1.00  0.00     0.034 A 
ATOM      3  C   UNL     1     141.900 137.959  90.674  1.00  0.00    -0.005 A 
ATOM      4  C   UNL     1     141.780 139.350  90.329  1.00  0.00     0.054 A 
ATOM      5  C   UNL     1     140.608 139.819  89.786  1.00  0.00     0.058 A 
ATOM      6  C   UNL     1     139.540 138.942  89.572  1.00  0.00     0.022 A 
ATOM      7  C   UNL     1     139.660 137.584  89.912  1.00  0.00     0.002 A 
ATOM      8  C   UNL     1     140.849 137.106  90.463  1.00  0.00     0.010 A 
ATOM      9  S   UNL     1     143.393 140.055  90.785  1.00  0.00    -0.128 S 
ATOM     10  Cl  UNL     1     140.449 141.542  89.355  1.00  0.00    -0.083 Cl
ENDROOT
BRANCH   1  11
ATOM     11  C   UNL     1     145.525 138.388  91.949  1.00  0.00     0.261 C 
ATOM     12  N   UNL     1     146.531 137.660  91.201  1.00  0.00    -0.347 N 
ATOM     13  O   UNL     1     145.790 138.832  93.014  1.00  0.00    -0.268 OA
ATOM     14  H   UNL     1     146.317 137.285  90.316  1.00  0.00     0.164 HD
BRANCH  12  15
ATOM     15  C   UNL     1     147.883 137.483  91.779  1.00  0.00     0.099 C 
ATOM     16  C   UNL     1     148.887 138.049  90.883  1.00  0.00     0.015 C 
ATOM     17  C   UNL     1     148.186 135.982  91.957  1.00  0.00     0.109 C 
ATOM     18  C   UNL     1     150.187 137.820  91.451  1.00  0.00     0.021 C 
ATOM     19  C   UNL     1     148.812 137.345  89.605  1.00  0.00     0.021 C 
ATOM     20  N   UNL     1     149.331 135.610  91.247  1.00  0.00    -0.301 NA
ATOM     21  C   UNL     1     150.415 136.353  91.662  1.00  0.00     0.085 C 
ATOM     22  C   UNL     1     149.122 135.821  89.862  1.00  0.00     0.085 C 
ENDBRANCH  12  15
ENDBRANCH   1  11
TORSDOF 2
ENDMDL
MODEL 5
REMARK VINA RESULT:    -7.485      3.887      8.125
REMARK INTER + INTRA:          -8.682
REMARK INTER:                  -8.368
REMARK INTRA:                  -0.314
REMARK UNBOUND:                -0.322
REMARK SMILES O=C(N[C@H]1CN2CCC1CC2)c1cc2cccc(Cl)c2s1
REMARK SMILES IDX 12 1 13 2 14 3 20 4 18 5 17 6 16 7 15 8 21 9 19 10 2 11 3 12
REMARK SMILES IDX 1 13 4 15 9 16 5 17 8 18 10 19 6 20 7 21 11 22
REMARK H PARENT 3 14
ROOT
ATOM      1  C   UNL     1     144.330 138.289  91.483  1.00  0.00     0.093 A 
ATOM      2  C   UNL     1     143.611 139.378  91.126  1.00  0.00     0.034 A 
ATOM      3  C   UNL     1     142.250 139.217  90.698  1.00  0.00    -0.005 A 
ATOM      4  C   UNL     1     141.811 137.848  90.709  1.00  0.00     0.054 A 
ATOM      5  C   UNL     1     140.528 137.541  90.323  1.00  0.00     0.058 A 
ATOM      6  C   UNL     1     139.658 138.561  89.924  1.00  0.00     0.022 A 
ATOM      7  C   UNL     1     140.092 139.898  89.915  1.00  0.00     0.002 A 
ATOM      8  C   UNL     1     141.394 140.211  90.305  1.00  0.00     0.010 A 
ATOM      9  S   UNL     1     143.266 136.925  91.288  1.00  0.00    -0.128 S 
ATOM     10  Cl  UNL     1     139.973 135.847  90.331  1.00  0.00    -0.083 Cl
ENDROOT
BRANCH   1  11
ATOM     11  C   UNL     1     145.787 138.293  91.958  1.00  0.00     0.261 C 
ATOM     12  N   UNL     1     146.786 137.492  91.279  1.00  0.00    -0.347 N 
ATOM     13  O   UNL     1     146.097 138.955  92.890  1.00  0.00    -0.268 OA
ATOM     14  H   UNL     1     146.536 136.938  90.505  1.00  0.00     0.164 HD
BRANCH  12  15
ATOM     15  C   UNL     1     148.187 137.514  91.759  1.00  0.00     0.099 C 
ATOM     16  C   UNL     1     149.059 138.075  90.731  1.00  0.00     0.015 C 
ATOM     17  C   UNL     1     148.661 136.079  92.062  1.00  0.00     0.109 C 
ATOM     18  C   UNL     1     150.413 138.039  91.210  1.00  0.00     0.021 C 
ATOM     19  C   UNL     1     148.969 137.231  89.541  1.00  0.00     0.021 C 
ATOM     20  N   UNL     1     149.786 135.746  91.302  1.00  0.00    -0.301 NA
ATOM     21  C   UNL     1     150.811 136.633  91.549  1.00  0.00     0.085 C 
ATOM     22  C   UNL     1     149.458 135.783  89.925  1.00  0.00     0.085 C 
ENDBRANCH  12  15
ENDBRANCH   1  11
TORSDOF 2
ENDMDL
MODEL 6
REMARK VINA RESULT:    -7.379      3.445      7.813
REMARK INTER + INTRA:          -8.563
REMARK INTER:                  -8.248
REMARK INTRA:                  -0.315
REMARK UNBOUND:                -0.322
REMARK SMILES O=C(N[C@H]1CN2CCC1CC2)c1cc2cccc(Cl)c2s1
REMARK SMILES IDX 12 1 13 2 14 3 20 4 18 5 17 6 16 7 15 8 21 9 19 10 2 11 3 12
REMARK SMILES IDX 1 13 4 15 9 16 5 17 8 18 10 19 6 20 7 21 11 22
REMARK H PARENT 3 14
ROOT
ATOM      1  C   UNL     1     142.845 139.953  90.286  1.00  0.00     0.093 A 
ATOM      2  C   UNL     1     141.754 140.277  91.018  1.00  0.00     0.034 A 
ATOM      3  C   UNL     1     140.481 140.406  90.368  1.00  0.00    -0.005 A 
ATOM      4  C   UNL     1     140.539 140.159  88.952  1.00  0.00     0.054 A 
ATOM      5  C   UNL     1     139.393 140.247  88.198  1.00  0.00     0.058 A 
ATOM      6  C   UNL     1     138.180 140.574  88.810  1.00  0.00     0.022 A 
ATOM      7  C   UNL     1     138.127 140.815  90.194  1.00  0.00     0.002 A 
ATOM      8  C   UNL     1     139.289 140.728  90.962  1.00  0.00     0.010 A 
ATOM      9  S   UNL     1     142.291 139.783  88.645  1.00  0.00    -0.128 S 
ATOM     10  Cl  UNL     1     139.454 139.944  86.442  1.00  0.00    -0.083 Cl
ENDROOT
BRANCH   1  11
ATOM     11  C   UNL     1     144.268 139.780  90.827  1.00  0.00     0.261 C 
ATOM     12  N   UNL     1     144.873 138.464  90.903  1.00  0.00    -0.347 N 
ATOM     13  O   UNL     1     144.877 140.729  91.189  1.00  0.00    -0.268 OA
ATOM     14  H   UNL     1     144.373 137.670  90.606  1.00  0.00     0.164 HD
BRANCH  12  15
ATOM     15  C   UNL     1     146.250 138.325  91.430  1.00  0.00     0.099 C 
ATOM     16  C   UNL     1     147.178 138.049  90.338  1.00  0.00     0.015 C 
ATOM     17  C   UNL     1     146.315 137.150  92.426  1.00  0.00     0.109 C 
ATOM     18  C   UNL     1     148.494 137.874  90.888  1.00  0.00     0.021 C 
ATOM     19  C   UNL     1     146.777 136.798  89.699  1.00  0.00     0.021 C 
ATOM     20  N   UNL     1     147.248 136.192  92.019  1.00  0.00    -0.301 NA
ATOM     21  C   UNL     1     148.496 136.762  91.895  1.00  0.00     0.085 C 
ATOM     22  C   UNL     1     146.857 135.647  90.772  1.00  0.00     0.085 C 
ENDBRANCH  12  15
ENDBRANCH   1  11
TORSDOF 2
ENDMDL
MODEL 7
REMARK VINA RESULT:    -7.289      1.965      2.723
REMARK INTER + INTRA:          -8.463
REMARK INTER:                  -8.129
REMARK INTRA:                  -0.334
REMARK UNBOUND:                -0.322
REMARK SMILES O=C(N[C@H]1CN2CCC1CC2)c1cc2cccc(Cl)c2s1
REMARK SMILES IDX 12 1 13 2 14 3 20 4 18 5 17 6 16 7 15 8 21 9 19 10 2 11 3 12
REMARK SMILES IDX 1 13 4 15 9 16 5 17 8 18 10 19 6 20 7 21 11 22
REMARK H PARENT 3 14
ROOT
ATOM      1  C   UNL     1     142.521 137.232  90.866  1.00  0.00     0.093 A 
ATOM      2  C   UNL     1     143.513 138.106  91.154  1.00  0.00     0.034 A 
ATOM      3  C   UNL     1     144.810 137.608  91.516  1.00  0.00    -0.005 A 
ATOM      4  C   UNL     1     144.884 136.172  91.522  1.00  0.00     0.054 A 
ATOM      5  C   UNL     1     146.067 135.553  91.849  1.00  0.00     0.058 A 
ATOM      6  C   UNL     1     147.189 136.321  92.174  1.00  0.00     0.022 A 
ATOM      7  C   UNL     1     147.112 137.725  92.167  1.00  0.00     0.002 A 
ATOM      8  C   UNL     1     145.912 138.355  91.835  1.00  0.00     0.010 A 
ATOM      9  S   UNL     1     143.211 135.644  91.045  1.00  0.00    -0.128 S 
ATOM     10  Cl  UNL     1     146.170 133.773  91.861  1.00  0.00    -0.083 Cl
ENDROOT
BRANCH   1  11
ATOM     11  C   UNL     1     141.089 137.602  90.467  1.00  0.00     0.261 C 
ATOM     12  N   UNL     1     140.718 138.987  90.250  1.00  0.00    -0.347 N 
ATOM     13  O   UNL     1     140.278 136.749  90.336  1.00  0.00    -0.268 OA
ATOM     14  H   UNL     1     141.385 139.703  90.359  1.00  0.00     0.164 HD
BRANCH  12  15
ATOM     15  C   UNL     1     139.327 139.317  89.865  1.00  0.00     0.099 C 
ATOM     16  C   UNL     1     139.280 139.732  88.466  1.00  0.00     0.015 C 
ATOM     17  C   UNL     1     138.804 140.481  90.730  1.00  0.00     0.109 C 
ATOM     18  C   UNL     1     137.927 140.088  88.139  1.00  0.00     0.021 C 
ATOM     19  C   UNL     1     140.119 140.917  88.310  1.00  0.00     0.021 C 
ATOM     20  N   UNL     1     138.415 141.565  89.938  1.00  0.00    -0.301 NA
ATOM     21  C   UNL     1     137.440 141.181  89.044  1.00  0.00     0.085 C 
ATOM     22  C   UNL     1     139.535 142.060  89.225  1.00  0.00     0.085 C 
ENDBRANCH  12  15
ENDBRANCH   1  11
TORSDOF 2
ENDMDL
MODEL 8
REMARK VINA RESULT:    -7.004      5.005      9.382
REMARK INTER + INTRA:          -8.144
REMARK INTER:                  -7.871
REMARK INTRA:                  -0.274
REMARK UNBOUND:                -0.322
REMARK SMILES O=C(N[C@H]1CN2CCC1CC2)c1cc2cccc(Cl)c2s1
REMARK SMILES IDX 12 1 13 2 14 3 20 4 18 5 17 6 16 7 15 8 21 9 19 10 2 11 3 12
REMARK SMILES IDX 1 13 4 15 9 16 5 17 8 18 10 19 6 20 7 21 11 22
REMARK H PARENT 3 14
ROOT
ATOM      1  C   UNL     1     146.620 136.877  91.800  1.00  0.00     0.093 A 
ATOM      2  C   UNL     1     146.378 138.198  91.631  1.00  0.00     0.034 A 
ATOM      3  C   UNL     1     145.051 138.636  91.304  1.00  0.00    -0.005 A 
ATOM      4  C   UNL     1     144.107 137.556  91.198  1.00  0.00     0.054 A 
ATOM      5  C   UNL     1     142.795 137.826  90.891  1.00  0.00     0.058 A 
ATOM      6  C   UNL     1     142.386 139.147  90.685  1.00  0.00     0.022 A 
ATOM      7  C   UNL     1     143.311 140.200  90.789  1.00  0.00     0.002 A 
ATOM      8  C   UNL     1     144.644 139.928  91.100  1.00  0.00     0.010 A 
ATOM      9  S   UNL     1     145.098 136.072  91.544  1.00  0.00    -0.128 S 
ATOM     10  Cl  UNL     1     141.616 136.495  90.756  1.00  0.00    -0.083 Cl
ENDROOT
BRANCH   1  11
ATOM     11  C   UNL     1     147.976 136.252  92.147  1.00  0.00     0.261 C 
ATOM     12  N   UNL     1     149.209 136.964  91.871  1.00  0.00    -0.347 N 
ATOM     13  O   UNL     1     148.015 135.176  92.641  1.00  0.00    -0.268 OA
ATOM     14  H   UNL     1     149.185 137.857  91.458  1.00  0.00     0.164 HD
BRANCH  12  15
ATOM     15  C   UNL     1     150.505 136.336  92.216  1.00  0.00     0.099 C 
ATOM     16  C   UNL     1     151.505 137.367  92.478  1.00  0.00     0.015 C 
ATOM     17  C   UNL     1     151.000 135.472  91.040  1.00  0.00     0.109 C 
ATOM     18  C   UNL     1     152.758 136.725  92.764  1.00  0.00     0.021 C 
ATOM     19  C   UNL     1     151.664 138.171  91.269  1.00  0.00     0.021 C 
ATOM     20  N   UNL     1     152.253 135.897  90.592  1.00  0.00    -0.301 NA
ATOM     21  C   UNL     1     153.171 135.849  91.618  1.00  0.00     0.085 C 
ATOM     22  C   UNL     1     152.161 137.226  90.109  1.00  0.00     0.085 C 
ENDBRANCH  12  15
ENDBRANCH   1  11
TORSDOF 2
ENDMDL
