MODEL 1
REMARK VINA RESULT:    -6.927      0.000      0.000
REMARK INTER + INTRA:          -7.825
REMARK INTER:                  -7.737
REMARK INTRA:                  -0.088
REMARK UNBOUND:                -0.088
REMARK SMILES O=C(N[C@H]1CN2CCC1CC2)c1cc2cccc(Cl)c2s1
REMARK SMILES IDX 12 1 13 2 14 3 20 4 18 5 17 6 16 7 15 8 21 9 19 10 2 11 3 12
REMARK SMILES IDX 1 13 4 15 9 16 5 17 8 18 10 19 6 20 7 21 11 22
REMARK H PARENT 3 14
ROOT
ATOM      1  C   UNL     1     141.573 140.450  95.790  1.00  0.00     0.093 A 
ATOM      2  C   UNL     1     140.288 140.035  95.874  1.00  0.00     0.034 A 
ATOM      3  C   UNL     1     139.336 140.827  96.599  1.00  0.00    -0.005 A 
ATOM      4  C   UNL     1     139.904 142.020  97.166  1.00  0.00     0.054 A 
ATOM      5  C   UNL     1     139.109 142.877  97.888  1.00  0.00     0.058 A 
ATOM      6  C   UNL     1     137.753 142.585  98.066  1.00  0.00     0.022 A 
ATOM      7  C   UNL     1     137.201 141.418  97.511  1.00  0.00     0.002 A 
ATOM      8  C   UNL     1     138.007 140.546  96.778  1.00  0.00     0.010 A 
ATOM      9  S   UNL     1     141.652 141.950  96.670  1.00  0.00    -0.128 S 
ATOM     10  Cl  UNL     1     139.804 144.358  98.597  1.00  0.00    -0.083 Cl
ENDROOT
BRANCH   1  11
ATOM     11  C   UNL     1     142.705 139.721  95.059  1.00  0.00     0.261 C 
ATOM     12  N   UNL     1     142.624 139.477  93.632  1.00  0.00    -0.347 N 
ATOM     13  O   UNL     1     143.652 139.352  95.666  1.00  0.00    -0.268 OA
ATOM     14  H   UNL     1     141.840 139.779  93.121  1.00  0.00     0.164 HD
BRANCH  12  15
ATOM     15  C   UNL     1     143.732 138.770  92.950  1.00  0.00     0.099 C 
ATOM     16  C   UNL     1     144.904 139.638  92.868  1.00  0.00     0.015 C 
ATOM     17  C   UNL     1     143.311 138.392  91.516  1.00  0.00     0.109 C 
ATOM     18  C   UNL     1     145.942 138.939  92.162  1.00  0.00     0.021 C 
ATOM     19  C   UNL     1     144.543 140.826  92.099  1.00  0.00     0.021 C 
ATOM     20  N   UNL     1     144.173 138.954  90.571  1.00  0.00    -0.301 NA
ATOM     21  C   UNL     1     145.468 138.539  90.796  1.00  0.00     0.085 C 
ATOM     22  C   UNL     1     144.115 140.367  90.653  1.00  0.00     0.085 C 
ENDBRANCH  12  15
ENDBRANCH   1  11
TORSDOF 2
ENDMDL
MODEL 2
REMARK VINA RESULT:    -6.015      5.788      6.919
REMARK INTER + INTRA:          -6.806
REMARK INTER:                  -6.492
REMARK INTRA:                  -0.314
REMARK UNBOUND:                -0.088
REMARK SMILES O=C(N[C@H]1CN2CCC1CC2)c1cc2cccc(Cl)c2s1
REMARK SMILES IDX 12 1 13 2 14 3 20 4 18 5 17 6 16 7 15 8 21 9 19 10 2 11 3 12
REMARK SMILES IDX 1 13 4 15 9 16 5 17 8 18 10 19 6 20 7 21 11 22
REMARK H PARENT 3 14
ROOT
ATOM      1  C   UNL     1     145.410 142.642  94.429  1.00  0.00     0.093 A 
ATOM      2  C   UNL     1     144.344 142.849  95.237  1.00  0.00     0.034 A 
ATOM      3  C   UNL     1     143.295 141.871  95.285  1.00  0.00    -0.005 A 
ATOM      4  C   UNL     1     143.530 140.743  94.426  1.00  0.00     0.054 A 
ATOM      5  C   UNL     1     142.609 139.725  94.369  1.00  0.00     0.058 A 
ATOM      6  C   UNL     1     141.449 139.792  95.147  1.00  0.00     0.022 A 
ATOM      7  C   UNL     1     141.221 140.897  95.985  1.00  0.00     0.002 A 
ATOM      8  C   UNL     1     142.156 141.932  96.044  1.00  0.00     0.010 A 
ATOM      9  S   UNL     1     145.130 141.114  93.645  1.00  0.00    -0.128 S 
ATOM     10  Cl  UNL     1     142.891 138.321  93.307  1.00  0.00    -0.083 Cl
ENDROOT
BRANCH   1  11
ATOM     11  C   UNL     1     146.606 143.586  94.264  1.00  0.00     0.261 C 
ATOM     12  N   UNL     1     147.898 143.244  94.825  1.00  0.00    -0.347 N 
ATOM     13  O   UNL     1     146.471 144.604  93.674  1.00  0.00    -0.268 OA
ATOM     14  H   UNL     1     148.018 142.401  95.318  1.00  0.00     0.164 HD
BRANCH  12  15
ATOM     15  C   UNL     1     149.037 144.174  94.650  1.00  0.00     0.099 C 
ATOM     16  C   UNL     1     150.186 143.460  94.101  1.00  0.00     0.015 C 
ATOM     17  C   UNL     1     149.446 144.766  96.014  1.00  0.00     0.109 C 
ATOM     18  C   UNL     1     151.284 144.379  93.988  1.00  0.00     0.021 C 
ATOM     19  C   UNL     1     150.563 142.405  95.038  1.00  0.00     0.021 C 
ATOM     20  N   UNL     1     150.781 144.480  96.311  1.00  0.00    -0.301 NA
ATOM     21  C   UNL     1     151.607 144.976  95.326  1.00  0.00     0.085 C 
ATOM     22  C   UNL     1     150.957 143.078  96.408  1.00  0.00     0.085 C 
ENDBRANCH  12  15
ENDBRANCH   1  11
TORSDOF 2
ENDMDL
MODEL 3
REMARK VINA RESULT:    -5.883      6.283      7.536
REMARK INTER + INTRA:          -6.660
REMARK INTER:                  -6.354
REMARK INTRA:                  -0.305
REMARK UNBOUND:                -0.088
REMARK SMILES O=C(N[C@H]1CN2CCC1CC2)c1cc2cccc(Cl)c2s1
REMARK SMILES IDX 12 1 13 2 14 3 20 4 18 5 17 6 16 7 15 8 21 9 19 10 2 11 3 12
REMARK SMILES IDX 1 13 4 15 9 16 5 17 8 18 10 19 6 20 7 21 11 22
REMARK H PARENT 3 14
ROOT
ATOM      1  C   UNL     1     145.236 142.819  94.568  1.00  0.00     0.093 A 
ATOM      2  C   UNL     1     144.134 142.815  95.353  1.00  0.00     0.034 A 
ATOM      3  C   UNL     1     143.219 141.711  95.280  1.00  0.00    -0.005 A 
ATOM      4  C   UNL     1     143.621 140.703  94.336  1.00  0.00     0.054 A 
ATOM      5  C   UNL     1     142.841 139.586  94.160  1.00  0.00     0.058 A 
ATOM      6  C   UNL     1     141.664 139.434  94.900  1.00  0.00     0.022 A 
ATOM      7  C   UNL     1     141.275 140.422  95.821  1.00  0.00     0.002 A 
ATOM      8  C   UNL     1     142.065 141.558  96.001  1.00  0.00     0.010 A 
ATOM      9  S   UNL     1     145.176 141.344  93.646  1.00  0.00    -0.128 S 
ATOM     10  Cl  UNL     1     143.328 138.331  92.991  1.00  0.00    -0.083 Cl
ENDROOT
BRANCH   1  11
ATOM     11  C   UNL     1     146.303 143.919  94.527  1.00  0.00     0.261 C 
ATOM     12  N   UNL     1     146.717 144.591  95.743  1.00  0.00    -0.347 N 
ATOM     13  O   UNL     1     146.789 144.224  93.491  1.00  0.00    -0.268 OA
ATOM     14  H   UNL     1     146.316 144.345  96.607  1.00  0.00     0.164 HD
BRANCH  12  15
ATOM     15  C   UNL     1     147.749 145.650  95.674  1.00  0.00     0.099 C 
ATOM     16  C   UNL     1     148.553 145.646  96.893  1.00  0.00     0.015 C 
ATOM     17  C   UNL     1     147.077 147.032  95.546  1.00  0.00     0.109 C 
ATOM     18  C   UNL     1     149.512 146.712  96.813  1.00  0.00     0.021 C 
ATOM     19  C   UNL     1     147.669 145.904  98.027  1.00  0.00     0.021 C 
ATOM     20  N   UNL     1     147.448 147.874  96.597  1.00  0.00    -0.301 NA
ATOM     21  C   UNL     1     148.817 148.028  96.628  1.00  0.00     0.085 C 
ATOM     22  C   UNL     1     147.011 147.323  97.826  1.00  0.00     0.085 C 
ENDBRANCH  12  15
ENDBRANCH   1  11
TORSDOF 2
ENDMDL
MODEL 4
REMARK VINA RESULT:    -5.833      6.330      9.412
REMARK INTER + INTRA:          -6.603
REMARK INTER:                  -6.306
REMARK INTRA:                  -0.297
REMARK UNBOUND:                -0.088
REMARK SMILES O=C(N[C@H]1CN2CCC1CC2)c1cc2cccc(Cl)c2s1
REMARK SMILES IDX 12 1 13 2 14 3 20 4 18 5 17 6 16 7 15 8 21 9 19 10 2 11 3 12
REMARK SMILES IDX 1 13 4 15 9 16 5 17 8 18 10 19 6 20 7 21 11 22
REMARK H PARENT 3 14
ROOT
ATOM      1  C   UNL     1     141.097 139.493  87.494  1.00  0.00     0.093 A 
ATOM      2  C   UNL     1     141.814 139.446  86.347  1.00  0.00     0.034 A 
ATOM      3  C   UNL     1     141.283 138.748  85.211  1.00  0.00    -0.005 A 
ATOM      4  C   UNL     1     139.992 138.163  85.456  1.00  0.00     0.054 A 
ATOM      5  C   UNL     1     139.361 137.463  84.456  1.00  0.00     0.058 A 
ATOM      6  C   UNL     1     139.975 137.324  83.208  1.00  0.00     0.022 A 
ATOM      7  C   UNL     1     141.237 137.897  82.972  1.00  0.00     0.002 A 
ATOM      8  C   UNL     1     141.881 138.607  83.986  1.00  0.00     0.010 A 
ATOM      9  S   UNL     1     139.630 138.609  87.181  1.00  0.00    -0.128 S 
ATOM     10  Cl  UNL     1     137.761 136.733  84.749  1.00  0.00    -0.083 Cl
ENDROOT
BRANCH   1  11
ATOM     11  C   UNL     1     141.522 140.192  88.789  1.00  0.00     0.261 C 
ATOM     12  N   UNL     1     142.603 139.658  89.595  1.00  0.00    -0.347 N 
ATOM     13  O   UNL     1     140.961 141.176  89.135  1.00  0.00    -0.268 OA
ATOM     14  H   UNL     1     143.072 138.839  89.316  1.00  0.00     0.164 HD
BRANCH  12  15
ATOM     15  C   UNL     1     142.993 140.354  90.843  1.00  0.00     0.099 C 
ATOM     16  C   UNL     1     144.429 140.211  91.066  1.00  0.00     0.015 C 
ATOM     17  C   UNL     1     142.255 139.732  92.045  1.00  0.00     0.109 C 
ATOM     18  C   UNL     1     144.766 140.856  92.304  1.00  0.00     0.021 C 
ATOM     19  C   UNL     1     144.736 138.788  91.189  1.00  0.00     0.021 C 
ATOM     20  N   UNL     1     143.156 139.248  92.997  1.00  0.00    -0.301 NA
ATOM     21  C   UNL     1     143.981 140.261  93.435  1.00  0.00     0.085 C 
ATOM     22  C   UNL     1     143.944 138.218  92.426  1.00  0.00     0.085 C 
ENDBRANCH  12  15
ENDBRANCH   1  11
TORSDOF 2
ENDMDL
MODEL 5
REMARK VINA RESULT:    -5.816      5.552      7.259
REMARK INTER + INTRA:          -6.585
REMARK INTER:                  -6.269
REMARK INTRA:                  -0.316
REMARK UNBOUND:                -0.088
REMARK SMILES O=C(N[C@H]1CN2CCC1CC2)c1cc2cccc(Cl)c2s1
REMARK SMILES IDX 12 1 13 2 14 3 20 4 18 5 17 6 16 7 15 8 21 9 19 10 2 11 3 12
REMARK SMILES IDX 1 13 4 15 9 16 5 17 8 18 10 19 6 20 7 21 11 22
REMARK H PARENT 3 14
ROOT
ATOM      1  C   UNL     1     145.267 143.010  94.773  1.00  0.00     0.093 A 
ATOM      2  C   UNL     1     145.545 141.992  93.927  1.00  0.00     0.034 A 
ATOM      3  C   UNL     1     144.615 140.906  93.799  1.00  0.00    -0.005 A 
ATOM      4  C   UNL     1     143.450 141.057  94.628  1.00  0.00     0.054 A 
ATOM      5  C   UNL     1     142.471 140.092  94.609  1.00  0.00     0.058 A 
ATOM      6  C   UNL     1     142.613 138.973  93.783  1.00  0.00     0.022 A 
ATOM      7  C   UNL     1     143.753 138.829  92.975  1.00  0.00     0.002 A 
ATOM      8  C   UNL     1     144.749 139.806  92.994  1.00  0.00     0.010 A 
ATOM      9  S   UNL     1     143.727 142.633  95.491  1.00  0.00    -0.128 S 
ATOM     10  Cl  UNL     1     141.022 140.268  95.634  1.00  0.00    -0.083 Cl
ENDROOT
BRANCH   1  11
ATOM     11  C   UNL     1     146.153 144.235  95.024  1.00  0.00     0.261 C 
ATOM     12  N   UNL     1     147.139 144.646  94.043  1.00  0.00    -0.347 N 
ATOM     13  O   UNL     1     146.034 144.849  96.030  1.00  0.00    -0.268 OA
ATOM     14  H   UNL     1     147.246 144.139  93.206  1.00  0.00     0.164 HD
BRANCH  12  15
ATOM     15  C   UNL     1     147.982 145.833  94.310  1.00  0.00     0.099 C 
ATOM     16  C   UNL     1     148.222 146.566  93.070  1.00  0.00     0.015 C 
ATOM     17  C   UNL     1     149.345 145.391  94.879  1.00  0.00     0.109 C 
ATOM     18  C   UNL     1     149.079 147.682  93.357  1.00  0.00     0.021 C 
ATOM     19  C   UNL     1     148.915 145.679  92.139  1.00  0.00     0.021 C 
ATOM     20  N   UNL     1     150.398 145.838  94.076  1.00  0.00    -0.301 NA
ATOM     21  C   UNL     1     150.367 147.211  93.964  1.00  0.00     0.085 C 
ATOM     22  C   UNL     1     150.290 145.261  92.786  1.00  0.00     0.085 C 
ENDBRANCH  12  15
ENDBRANCH   1  11
TORSDOF 2
ENDMDL
MODEL 6
REMARK VINA RESULT:    -5.753      6.294     10.238
REMARK INTER + INTRA:          -6.513
REMARK INTER:                  -6.184
REMARK INTRA:                  -0.329
REMARK UNBOUND:                -0.088
REMARK SMILES O=C(N[C@H]1CN2CCC1CC2)c1cc2cccc(Cl)c2s1
REMARK SMILES IDX 12 1 13 2 14 3 20 4 18 5 17 6 16 7 15 8 21 9 19 10 2 11 3 12
REMARK SMILES IDX 1 13 4 15 9 16 5 17 8 18 10 19 6 20 7 21 11 22
REMARK H PARENT 3 14
ROOT
ATOM      1  C   UNL     1     149.135 137.964  91.686  1.00  0.00     0.093 A 
ATOM      2  C   UNL     1     149.851 138.605  92.639  1.00  0.00     0.034 A 
ATOM      3  C   UNL     1     151.183 138.164  92.938  1.00  0.00    -0.005 A 
ATOM      4  C   UNL     1     151.601 137.041  92.142  1.00  0.00     0.054 A 
ATOM      5  C   UNL     1     152.856 136.511  92.319  1.00  0.00     0.058 A 
ATOM      6  C   UNL     1     153.719 137.064  93.270  1.00  0.00     0.022 A 
ATOM      7  C   UNL     1     153.306 138.161  94.047  1.00  0.00     0.002 A 
ATOM      8  C   UNL     1     152.032 138.701  93.869  1.00  0.00     0.010 A 
ATOM      9  S   UNL     1     150.165 136.698  91.081  1.00  0.00    -0.128 S 
ATOM     10  Cl  UNL     1     153.385 135.119  91.338  1.00  0.00    -0.083 Cl
ENDROOT
BRANCH   1  11
ATOM     11  C   UNL     1     147.706 138.310  91.253  1.00  0.00     0.261 C 
ATOM     12  N   UNL     1     146.637 138.387  92.230  1.00  0.00    -0.347 N 
ATOM     13  O   UNL     1     147.474 138.512  90.110  1.00  0.00    -0.268 OA
ATOM     14  H   UNL     1     146.822 138.217  93.182  1.00  0.00     0.164 HD
BRANCH  12  15
ATOM     15  C   UNL     1     145.266 138.723  91.785  1.00  0.00     0.099 C 
ATOM     16  C   UNL     1     145.035 140.158  91.915  1.00  0.00     0.015 C 
ATOM     17  C   UNL     1     144.234 137.987  92.662  1.00  0.00     0.109 C 
ATOM     18  C   UNL     1     143.684 140.443  91.519  1.00  0.00     0.021 C 
ATOM     19  C   UNL     1     145.190 140.523  93.321  1.00  0.00     0.021 C 
ATOM     20  N   UNL     1     143.372 138.889  93.293  1.00  0.00    -0.301 NA
ATOM     21  C   UNL     1     142.717 139.661  92.358  1.00  0.00     0.085 C 
ATOM     22  C   UNL     1     144.114 139.731  94.158  1.00  0.00     0.085 C 
ENDBRANCH  12  15
ENDBRANCH   1  11
TORSDOF 2
ENDMDL
MODEL 7
REMARK VINA RESULT:    -5.749      5.523      6.936
REMARK INTER + INTRA:          -6.509
REMARK INTER:                  -6.193
REMARK INTRA:                  -0.316
REMARK UNBOUND:                -0.088
REMARK SMILES O=C(N[C@H]1CN2CCC1CC2)c1cc2cccc(Cl)c2s1
REMARK SMILES IDX 12 1 13 2 14 3 20 4 18 5 17 6 16 7 15 8 21 9 19 10 2 11 3 12
REMARK SMILES IDX 1 13 4 15 9 16 5 17 8 18 10 19 6 20 7 21 11 22
REMARK H PARENT 3 14
ROOT
ATOM      1  C   UNL     1     145.184 143.026  94.725  1.00  0.00     0.093 A 
ATOM      2  C   UNL     1     145.145 141.885  94.000  1.00  0.00     0.034 A 
ATOM      3  C   UNL     1     144.082 140.946  94.218  1.00  0.00    -0.005 A 
ATOM      4  C   UNL     1     143.150 141.369  95.229  1.00  0.00     0.054 A 
ATOM      5  C   UNL     1     142.077 140.569  95.544  1.00  0.00     0.058 A 
ATOM      6  C   UNL     1     141.898 139.351  94.880  1.00  0.00     0.022 A 
ATOM      7  C   UNL     1     142.812 138.941  93.894  1.00  0.00     0.002 A 
ATOM      8  C   UNL     1     143.901 139.751  93.573  1.00  0.00     0.010 A 
ATOM      9  S   UNL     1     143.800 142.975  95.779  1.00  0.00    -0.128 S 
ATOM     10  Cl  UNL     1     140.917 141.083  96.796  1.00  0.00    -0.083 Cl
ENDROOT
BRANCH   1  11
ATOM     11  C   UNL     1     146.249 144.123  94.614  1.00  0.00     0.261 C 
ATOM     12  N   UNL     1     147.654 143.806  94.777  1.00  0.00    -0.347 N 
ATOM     13  O   UNL     1     145.919 145.240  94.396  1.00  0.00    -0.268 OA
ATOM     14  H   UNL     1     147.936 142.881  94.961  1.00  0.00     0.164 HD
BRANCH  12  15
ATOM     15  C   UNL     1     148.663 144.885  94.665  1.00  0.00     0.099 C 
ATOM     16  C   UNL     1     149.711 144.494  93.728  1.00  0.00     0.015 C 
ATOM     17  C   UNL     1     149.315 145.139  96.038  1.00  0.00     0.109 C 
ATOM     18  C   UNL     1     150.694 145.540  93.678  1.00  0.00     0.021 C 
ATOM     19  C   UNL     1     150.353 143.283  94.234  1.00  0.00     0.021 C 
ATOM     20  N   UNL     1     150.699 144.955  95.983  1.00  0.00    -0.301 NA
ATOM     21  C   UNL     1     151.257 145.795  95.044  1.00  0.00     0.085 C 
ATOM     22  C   UNL     1     150.987 143.611  95.639  1.00  0.00     0.085 C 
ENDBRANCH  12  15
ENDBRANCH   1  11
TORSDOF 2
ENDMDL
MODEL 8
REMARK VINA RESULT:    -5.715      3.963      5.721
REMARK INTER + INTRA:          -6.471
REMARK INTER:                  -6.186
REMARK INTRA:                  -0.285
REMARK UNBOUND:                -0.088
REMARK SMILES O=C(N[C@H]1CN2CCC1CC2)c1cc2cccc(Cl)c2s1
REMARK SMILES IDX 12 1 13 2 14 3 20 4 18 5 17 6 16 7 15 8 21 9 19 10 2 11 3 12
REMARK SMILES IDX 1 13 4 15 9 16 5 17 8 18 10 19 6 20 7 21 11 22
REMARK H PARENT 3 14
ROOT
ATOM      1  C   UNL     1     145.536 139.326  92.625  1.00  0.00     0.093 A 
ATOM      2  C   UNL     1     144.364 138.752  92.983  1.00  0.00     0.034 A 
ATOM      3  C   UNL     1     143.507 139.422  93.918  1.00  0.00    -0.005 A 
ATOM      4  C   UNL     1     144.034 140.682  94.370  1.00  0.00     0.054 A 
ATOM      5  C   UNL     1     143.319 141.436  95.269  1.00  0.00     0.058 A 
ATOM      6  C   UNL     1     142.084 140.977  95.737  1.00  0.00     0.022 A 
ATOM      7  C   UNL     1     141.573 139.745  95.294  1.00  0.00     0.002 A 
ATOM      8  C   UNL     1     142.297 138.977  94.382  1.00  0.00     0.010 A 
ATOM      9  S   UNL     1     145.621 140.830  93.496  1.00  0.00    -0.128 S 
ATOM     10  Cl  UNL     1     143.964 142.999  95.837  1.00  0.00    -0.083 Cl
ENDROOT
BRANCH   1  11
ATOM     11  C   UNL     1     146.559 138.741  91.644  1.00  0.00     0.261 C 
ATOM     12  N   UNL     1     147.829 138.230  92.122  1.00  0.00    -0.347 N 
ATOM     13  O   UNL     1     146.309 138.709  90.487  1.00  0.00    -0.268 OA
ATOM     14  H   UNL     1     148.045 138.254  93.081  1.00  0.00     0.164 HD
BRANCH  12  15
ATOM     15  C   UNL     1     148.799 137.670  91.153  1.00  0.00     0.099 C 
ATOM     16  C   UNL     1     149.577 136.607  91.782  1.00  0.00     0.015 C 
ATOM     17  C   UNL     1     149.773 138.770  90.689  1.00  0.00     0.109 C 
ATOM     18  C   UNL     1     150.537 136.118  90.832  1.00  0.00     0.021 C 
ATOM     19  C   UNL     1     150.300 137.176  92.916  1.00  0.00     0.021 C 
ATOM     20  N   UNL     1     151.098 138.426  90.973  1.00  0.00    -0.301 NA
ATOM     21  C   UNL     1     151.424 137.234  90.363  1.00  0.00     0.085 C 
ATOM     22  C   UNL     1     151.267 138.297  92.373  1.00  0.00     0.085 C 
ENDBRANCH  12  15
ENDBRANCH   1  11
TORSDOF 2
ENDMDL
MODEL 9
REMARK VINA RESULT:    -5.664      6.049      7.508
REMARK INTER + INTRA:          -6.415
REMARK INTER:                  -6.135
REMARK INTRA:                  -0.280
REMARK UNBOUND:                -0.088
REMARK SMILES O=C(N[C@H]1CN2CCC1CC2)c1cc2cccc(Cl)c2s1
REMARK SMILES IDX 12 1 13 2 14 3 20 4 18 5 17 6 16 7 15 8 21 9 19 10 2 11 3 12
REMARK SMILES IDX 1 13 4 15 9 16 5 17 8 18 10 19 6 20 7 21 11 22
REMARK H PARENT 3 14
ROOT
ATOM      1  C   UNL     1     145.360 142.979  94.622  1.00  0.00     0.093 A 
ATOM      2  C   UNL     1     145.266 141.819  93.931  1.00  0.00     0.034 A 
ATOM      3  C   UNL     1     144.157 140.941  94.173  1.00  0.00    -0.005 A 
ATOM      4  C   UNL     1     143.245 141.440  95.167  1.00  0.00     0.054 A 
ATOM      5  C   UNL     1     142.134 140.704  95.502  1.00  0.00     0.058 A 
ATOM      6  C   UNL     1     141.896 139.477  94.875  1.00  0.00     0.022 A 
ATOM      7  C   UNL     1     142.790 138.993  93.905  1.00  0.00     0.002 A 
ATOM      8  C   UNL     1     143.919 139.738  93.563  1.00  0.00     0.010 A 
ATOM      9  S   UNL     1     143.972 143.028  95.671  1.00  0.00    -0.128 S 
ATOM     10  Cl  UNL     1     140.997 141.312  96.734  1.00  0.00    -0.083 Cl
ENDROOT
BRANCH   1  11
ATOM     11  C   UNL     1     146.478 144.018  94.481  1.00  0.00     0.261 C 
ATOM     12  N   UNL     1     147.115 144.580  95.657  1.00  0.00    -0.347 N 
ATOM     13  O   UNL     1     146.822 144.366  93.403  1.00  0.00    -0.268 OA
ATOM     14  H   UNL     1     146.833 144.297  96.557  1.00  0.00     0.164 HD
BRANCH  12  15
ATOM     15  C   UNL     1     148.192 145.582  95.493  1.00  0.00     0.099 C 
ATOM     16  C   UNL     1     149.149 145.472  96.590  1.00  0.00     0.015 C 
ATOM     17  C   UNL     1     147.596 147.003  95.516  1.00  0.00     0.109 C 
ATOM     18  C   UNL     1     150.153 146.486  96.426  1.00  0.00     0.021 C 
ATOM     19  C   UNL     1     148.442 145.722  97.844  1.00  0.00     0.021 C 
ATOM     20  N   UNL     1     148.154 147.770  96.541  1.00  0.00    -0.301 NA
ATOM     21  C   UNL     1     149.522 147.846  96.392  1.00  0.00     0.085 C 
ATOM     22  C   UNL     1     147.852 147.183  97.794  1.00  0.00     0.085 C 
ENDBRANCH  12  15
ENDBRANCH   1  11
TORSDOF 2
ENDMDL
MODEL 10
REMARK VINA RESULT:    -5.643      5.931      7.150
REMARK INTER + INTRA:          -6.391
REMARK INTER:                  -6.108
REMARK INTRA:                  -0.282
REMARK UNBOUND:                -0.088
REMARK SMILES O=C(N[C@H]1CN2CCC1CC2)c1cc2cccc(Cl)c2s1
REMARK SMILES IDX 12 1 13 2 14 3 20 4 18 5 17 6 16 7 15 8 21 9 19 10 2 11 3 12
REMARK SMILES IDX 1 13 4 15 9 16 5 17 8 18 10 19 6 20 7 21 11 22
REMARK H PARENT 3 14
ROOT
ATOM      1  C   UNL     1     145.261 143.235  94.818  1.00  0.00     0.093 A 
ATOM      2  C   UNL     1     144.082 143.071  95.460  1.00  0.00     0.034 A 
ATOM      3  C   UNL     1     143.338 141.859  95.271  1.00  0.00    -0.005 A 
ATOM      4  C   UNL     1     143.981 140.931  94.380  1.00  0.00     0.054 A 
ATOM      5  C   UNL     1     143.384 139.724  94.106  1.00  0.00     0.058 A 
ATOM      6  C   UNL     1     142.156 139.406  94.694  1.00  0.00     0.022 A 
ATOM      7  C   UNL     1     141.529 140.315  95.563  1.00  0.00     0.002 A 
ATOM      8  C   UNL     1     142.134 141.541  95.843  1.00  0.00     0.010 A 
ATOM      9  S   UNL     1     145.511 141.783  93.891  1.00  0.00    -0.128 S 
ATOM     10  Cl  UNL     1     144.172 138.567  93.002  1.00  0.00    -0.083 Cl
ENDROOT
BRANCH   1  11
ATOM     11  C   UNL     1     146.170 144.466  94.912  1.00  0.00     0.261 C 
ATOM     12  N   UNL     1     147.206 144.695  93.924  1.00  0.00    -0.347 N 
ATOM     13  O   UNL     1     146.026 145.234  95.802  1.00  0.00    -0.268 OA
ATOM     14  H   UNL     1     147.334 144.060  93.183  1.00  0.00     0.164 HD
BRANCH  12  15
ATOM     15  C   UNL     1     148.070 145.892  94.039  1.00  0.00     0.099 C 
ATOM     16  C   UNL     1     148.465 146.353  92.711  1.00  0.00     0.015 C 
ATOM     17  C   UNL     1     149.348 145.544  94.827  1.00  0.00     0.109 C 
ATOM     18  C   UNL     1     149.337 147.484  92.860  1.00  0.00     0.021 C 
ATOM     19  C   UNL     1     149.209 145.281  92.055  1.00  0.00     0.021 C 
ATOM     20  N   UNL     1     150.495 145.794  94.069  1.00  0.00    -0.301 NA
ATOM     21  C   UNL     1     150.536 147.116  93.684  1.00  0.00     0.085 C 
ATOM     22  C   UNL     1     150.492 144.971  92.916  1.00  0.00     0.085 C 
ENDBRANCH  12  15
ENDBRANCH   1  11
TORSDOF 2
ENDMDL
MODEL 11
REMARK VINA RESULT:    -5.543      5.924     10.243
REMARK INTER + INTRA:          -6.280
REMARK INTER:                  -6.005
REMARK INTRA:                  -0.274
REMARK UNBOUND:                -0.088
REMARK SMILES O=C(N[C@H]1CN2CCC1CC2)c1cc2cccc(Cl)c2s1
REMARK SMILES IDX 12 1 13 2 14 3 20 4 18 5 17 6 16 7 15 8 21 9 19 10 2 11 3 12
REMARK SMILES IDX 1 13 4 15 9 16 5 17 8 18 10 19 6 20 7 21 11 22
REMARK H PARENT 3 14
ROOT
ATOM      1  C   UNL     1     149.120 137.879  91.585  1.00  0.00     0.093 A 
ATOM      2  C   UNL     1     149.825 136.848  91.064  1.00  0.00     0.034 A 
ATOM      3  C   UNL     1     151.159 136.597  91.531  1.00  0.00    -0.005 A 
ATOM      4  C   UNL     1     151.588 137.523  92.546  1.00  0.00     0.054 A 
ATOM      5  C   UNL     1     152.845 137.404  93.088  1.00  0.00     0.058 A 
ATOM      6  C   UNL     1     153.698 136.385  92.652  1.00  0.00     0.022 A 
ATOM      7  C   UNL     1     153.275 135.484  91.660  1.00  0.00     0.002 A 
ATOM      8  C   UNL     1     152.000 135.603  91.108  1.00  0.00     0.010 A 
ATOM      9  S   UNL     1     150.161 138.628  92.761  1.00  0.00    -0.128 S 
ATOM     10  Cl  UNL     1     153.387 138.546  94.345  1.00  0.00    -0.083 Cl
ENDROOT
BRANCH   1  11
ATOM     11  C   UNL     1     147.692 138.277  91.193  1.00  0.00     0.261 C 
ATOM     12  N   UNL     1     146.632 138.285  92.182  1.00  0.00    -0.347 N 
ATOM     13  O   UNL     1     147.455 138.577  90.073  1.00  0.00    -0.268 OA
ATOM     14  H   UNL     1     146.820 138.034  93.115  1.00  0.00     0.164 HD
BRANCH  12  15
ATOM     15  C   UNL     1     145.262 138.674  91.777  1.00  0.00     0.099 C 
ATOM     16  C   UNL     1     145.080 140.113  91.944  1.00  0.00     0.015 C 
ATOM     17  C   UNL     1     144.227 137.952  92.662  1.00  0.00     0.109 C 
ATOM     18  C   UNL     1     143.730 140.448  91.587  1.00  0.00     0.021 C 
ATOM     19  C   UNL     1     145.278 140.440  93.353  1.00  0.00     0.021 C 
ATOM     20  N   UNL     1     143.410 138.865  93.333  1.00  0.00    -0.301 NA
ATOM     21  C   UNL     1     142.758 139.678  92.431  1.00  0.00     0.085 C 
ATOM     22  C   UNL     1     144.198 139.664  94.198  1.00  0.00     0.085 C 
ENDBRANCH  12  15
ENDBRANCH   1  11
TORSDOF 2
ENDMDL
MODEL 12
REMARK VINA RESULT:    -5.489      4.953      7.343
REMARK INTER + INTRA:          -6.218
REMARK INTER:                  -5.897
REMARK INTRA:                  -0.321
REMARK UNBOUND:                -0.088
REMARK SMILES O=C(N[C@H]1CN2CCC1CC2)c1cc2cccc(Cl)c2s1
REMARK SMILES IDX 12 1 13 2 14 3 20 4 18 5 17 6 16 7 15 8 21 9 19 10 2 11 3 12
REMARK SMILES IDX 1 13 4 15 9 16 5 17 8 18 10 19 6 20 7 21 11 22
REMARK H PARENT 3 14
ROOT
ATOM      1  C   UNL     1     146.499 138.617  91.495  1.00  0.00     0.093 A 
ATOM      2  C   UNL     1     145.698 138.998  90.473  1.00  0.00     0.034 A 
ATOM      3  C   UNL     1     144.358 139.431  90.751  1.00  0.00    -0.005 A 
ATOM      4  C   UNL     1     144.031 139.403  92.151  1.00  0.00     0.054 A 
ATOM      5  C   UNL     1     142.780 139.792  92.567  1.00  0.00     0.058 A 
ATOM      6  C   UNL     1     141.834 140.213  91.627  1.00  0.00     0.022 A 
ATOM      7  C   UNL     1     142.157 140.239  90.260  1.00  0.00     0.002 A 
ATOM      8  C   UNL     1     143.426 139.844  89.836  1.00  0.00     0.010 A 
ATOM      9  S   UNL     1     145.551 138.798  92.944  1.00  0.00    -0.128 S 
ATOM     10  Cl  UNL     1     142.364 139.760  94.300  1.00  0.00    -0.083 Cl
ENDROOT
BRANCH   1  11
ATOM     11  C   UNL     1     147.946 138.130  91.365  1.00  0.00     0.261 C 
ATOM     12  N   UNL     1     148.652 138.241  90.103  1.00  0.00    -0.347 N 
ATOM     13  O   UNL     1     148.491 137.656  92.304  1.00  0.00    -0.268 OA
ATOM     14  H   UNL     1     148.205 138.631  89.317  1.00  0.00     0.164 HD
BRANCH  12  15
ATOM     15  C   UNL     1     150.049 137.762  90.005  1.00  0.00     0.099 C 
ATOM     16  C   UNL     1     150.829 138.665  89.163  1.00  0.00     0.015 C 
ATOM     17  C   UNL     1     150.081 136.360  89.365  1.00  0.00     0.109 C 
ATOM     18  C   UNL     1     152.164 138.148  89.052  1.00  0.00     0.021 C 
ATOM     19  C   UNL     1     150.230 138.684  87.831  1.00  0.00     0.021 C 
ATOM     20  N   UNL     1     150.857 136.351  88.203  1.00  0.00    -0.301 NA
ATOM     21  C   UNL     1     152.143 136.760  88.482  1.00  0.00     0.085 C 
ATOM     22  C   UNL     1     150.287 137.223  87.243  1.00  0.00     0.085 C 
ENDBRANCH  12  15
ENDBRANCH   1  11
TORSDOF 2
ENDMDL
MODEL 13
REMARK VINA RESULT:    -5.465     10.734     11.763
REMARK INTER + INTRA:          -6.193
REMARK INTER:                  -5.956
REMARK INTRA:                  -0.236
REMARK UNBOUND:                -0.088
REMARK SMILES O=C(N[C@H]1CN2CCC1CC2)c1cc2cccc(Cl)c2s1
REMARK SMILES IDX 12 1 13 2 14 3 20 4 18 5 17 6 16 7 15 8 21 9 19 10 2 11 3 12
REMARK SMILES IDX 1 13 4 15 9 16 5 17 8 18 10 19 6 20 7 21 11 22
REMARK H PARENT 3 14
ROOT
ATOM      1  C   UNL     1     151.219 136.682  89.676  1.00  0.00     0.093 A 
ATOM      2  C   UNL     1     152.220 136.160  90.423  1.00  0.00     0.034 A 
ATOM      3  C   UNL     1     152.489 136.707  91.723  1.00  0.00    -0.005 A 
ATOM      4  C   UNL     1     151.612 137.790  92.076  1.00  0.00     0.054 A 
ATOM      5  C   UNL     1     151.752 138.411  93.294  1.00  0.00     0.058 A 
ATOM      6  C   UNL     1     152.745 137.986  94.182  1.00  0.00     0.022 A 
ATOM      7  C   UNL     1     153.601 136.928  93.833  1.00  0.00     0.002 A 
ATOM      8  C   UNL     1     153.461 136.296  92.597  1.00  0.00     0.010 A 
ATOM      9  S   UNL     1     150.523 137.961  90.630  1.00  0.00    -0.128 S 
ATOM     10  Cl  UNL     1     150.670 139.756  93.741  1.00  0.00    -0.083 Cl
ENDROOT
BRANCH   1  11
ATOM     11  C   UNL     1     150.809 136.214  88.275  1.00  0.00     0.261 C 
ATOM     12  N   UNL     1     149.503 135.628  88.047  1.00  0.00    -0.347 N 
ATOM     13  O   UNL     1     151.568 136.331  87.374  1.00  0.00    -0.268 OA
ATOM     14  H   UNL     1     148.868 135.525  88.792  1.00  0.00     0.164 HD
BRANCH  12  15
ATOM     15  C   UNL     1     149.132 135.184  86.684  1.00  0.00     0.099 C 
ATOM     16  C   UNL     1     148.607 136.310  85.917  1.00  0.00     0.015 C 
ATOM     17  C   UNL     1     148.037 134.103  86.763  1.00  0.00     0.109 C 
ATOM     18  C   UNL     1     148.215 135.837  84.619  1.00  0.00     0.021 C 
ATOM     19  C   UNL     1     147.419 136.817  86.600  1.00  0.00     0.021 C 
ATOM     20  N   UNL     1     146.890 134.492  86.066  1.00  0.00    -0.301 NA
ATOM     21  C   UNL     1     147.194 134.745  84.746  1.00  0.00     0.085 C 
ATOM     22  C   UNL     1     146.349 135.661  86.654  1.00  0.00     0.085 C 
ENDBRANCH  12  15
ENDBRANCH   1  11
TORSDOF 2
ENDMDL
MODEL 14
REMARK VINA RESULT:    -5.371      6.027      7.165
REMARK INTER + INTRA:          -6.087
REMARK INTER:                  -5.805
REMARK INTRA:                  -0.282
REMARK UNBOUND:                -0.088
REMARK SMILES O=C(N[C@H]1CN2CCC1CC2)c1cc2cccc(Cl)c2s1
REMARK SMILES IDX 12 1 13 2 14 3 20 4 18 5 17 6 16 7 15 8 21 9 19 10 2 11 3 12
REMARK SMILES IDX 1 13 4 15 9 16 5 17 8 18 10 19 6 20 7 21 11 22
REMARK H PARENT 3 14
ROOT
ATOM      1  C   UNL     1     145.722 142.820  94.548  1.00  0.00     0.093 A 
ATOM      2  C   UNL     1     144.676 143.165  95.334  1.00  0.00     0.034 A 
ATOM      3  C   UNL     1     143.523 142.311  95.390  1.00  0.00    -0.005 A 
ATOM      4  C   UNL     1     143.643 141.142  94.561  1.00  0.00     0.054 A 
ATOM      5  C   UNL     1     142.614 140.232  94.514  1.00  0.00     0.058 A 
ATOM      6  C   UNL     1     141.459 140.447  95.272  1.00  0.00     0.022 A 
ATOM      7  C   UNL     1     141.346 141.591  96.081  1.00  0.00     0.002 A 
ATOM      8  C   UNL     1     142.389 142.517  96.129  1.00  0.00     0.010 A 
ATOM      9  S   UNL     1     145.283 141.313  93.796  1.00  0.00    -0.128 S 
ATOM     10  Cl  UNL     1     142.751 138.780  93.489  1.00  0.00    -0.083 Cl
ENDROOT
BRANCH   1  11
ATOM     11  C   UNL     1     147.018 143.621  94.379  1.00  0.00     0.261 C 
ATOM     12  N   UNL     1     147.000 144.928  93.751  1.00  0.00    -0.347 N 
ATOM     13  O   UNL     1     148.042 143.165  94.762  1.00  0.00    -0.268 OA
ATOM     14  H   UNL     1     146.154 145.312  93.428  1.00  0.00     0.164 HD
BRANCH  12  15
ATOM     15  C   UNL     1     148.267 145.680  93.600  1.00  0.00     0.099 C 
ATOM     16  C   UNL     1     148.527 146.468  94.801  1.00  0.00     0.015 C 
ATOM     17  C   UNL     1     148.165 146.646  92.403  1.00  0.00     0.109 C 
ATOM     18  C   UNL     1     149.735 147.219  94.603  1.00  0.00     0.021 C 
ATOM     19  C   UNL     1     147.424 147.409  94.981  1.00  0.00     0.021 C 
ATOM     20  N   UNL     1     148.376 147.968  92.800  1.00  0.00    -0.301 NA
ATOM     21  C   UNL     1     149.613 148.099  93.394  1.00  0.00     0.085 C 
ATOM     22  C   UNL     1     147.372 148.356  93.721  1.00  0.00     0.085 C 
ENDBRANCH  12  15
ENDBRANCH   1  11
TORSDOF 2
ENDMDL
MODEL 15
REMARK VINA RESULT:    -5.345      5.809      8.189
REMARK INTER + INTRA:          -6.059
REMARK INTER:                  -5.730
REMARK INTRA:                  -0.329
REMARK UNBOUND:                -0.088
REMARK SMILES O=C(N[C@H]1CN2CCC1CC2)c1cc2cccc(Cl)c2s1
REMARK SMILES IDX 12 1 13 2 14 3 20 4 18 5 17 6 16 7 15 8 21 9 19 10 2 11 3 12
REMARK SMILES IDX 1 13 4 15 9 16 5 17 8 18 10 19 6 20 7 21 11 22
REMARK H PARENT 3 14
ROOT
ATOM      1  C   UNL     1     141.563 140.102  89.095  1.00  0.00     0.093 A 
ATOM      2  C   UNL     1     142.869 139.761  89.191  1.00  0.00     0.034 A 
ATOM      3  C   UNL     1     143.491 139.703  90.483  1.00  0.00    -0.005 A 
ATOM      4  C   UNL     1     142.594 140.028  91.559  1.00  0.00     0.054 A 
ATOM      5  C   UNL     1     143.051 140.012  92.855  1.00  0.00     0.058 A 
ATOM      6  C   UNL     1     144.383 139.680  93.120  1.00  0.00     0.022 A 
ATOM      7  C   UNL     1     145.257 139.363  92.065  1.00  0.00     0.002 A 
ATOM      8  C   UNL     1     144.795 139.379  90.749  1.00  0.00     0.010 A 
ATOM      9  S   UNL     1     141.018 140.379  90.725  1.00  0.00    -0.128 S 
ATOM     10  Cl  UNL     1     141.948 140.415  94.197  1.00  0.00    -0.083 Cl
ENDROOT
BRANCH   1  11
ATOM     11  C   UNL     1     140.758 140.211  87.795  1.00  0.00     0.261 C 
ATOM     12  N   UNL     1     141.097 139.393  86.647  1.00  0.00    -0.347 N 
ATOM     13  O   UNL     1     139.854 140.973  87.729  1.00  0.00    -0.268 OA
ATOM     14  H   UNL     1     141.848 138.759  86.694  1.00  0.00     0.164 HD
BRANCH  12  15
ATOM     15  C   UNL     1     140.302 139.518  85.404  1.00  0.00     0.099 C 
ATOM     16  C   UNL     1     139.567 138.282  85.153  1.00  0.00     0.015 C 
ATOM     17  C   UNL     1     141.239 139.773  84.206  1.00  0.00     0.109 C 
ATOM     18  C   UNL     1     138.845 138.421  83.919  1.00  0.00     0.021 C 
ATOM     19  C   UNL     1     140.531 137.196  85.003  1.00  0.00     0.021 C 
ATOM     20  N   UNL     1     141.094 138.782  83.231  1.00  0.00    -0.301 NA
ATOM     21  C   UNL     1     139.788 138.727  82.793  1.00  0.00     0.085 C 
ATOM     22  C   UNL     1     141.458 137.525  83.772  1.00  0.00     0.085 C 
ENDBRANCH  12  15
ENDBRANCH   1  11
TORSDOF 2
ENDMDL
MODEL 16
REMARK VINA RESULT:    -5.327      6.289     10.903
REMARK INTER + INTRA:          -6.038
REMARK INTER:                  -5.732
REMARK INTRA:                  -0.306
REMARK UNBOUND:                -0.088
REMARK SMILES O=C(N[C@H]1CN2CCC1CC2)c1cc2cccc(Cl)c2s1
REMARK SMILES IDX 12 1 13 2 14 3 20 4 18 5 17 6 16 7 15 8 21 9 19 10 2 11 3 12
REMARK SMILES IDX 1 13 4 15 9 16 5 17 8 18 10 19 6 20 7 21 11 22
REMARK H PARENT 3 14
ROOT
ATOM      1  C   UNL     1     149.135 138.410  90.091  1.00  0.00     0.093 A 
ATOM      2  C   UNL     1     149.008 138.167  88.766  1.00  0.00     0.034 A 
ATOM      3  C   UNL     1     150.123 138.408  87.895  1.00  0.00    -0.005 A 
ATOM      4  C   UNL     1     151.287 138.897  88.584  1.00  0.00     0.054 A 
ATOM      5  C   UNL     1     152.433 139.171  87.876  1.00  0.00     0.058 A 
ATOM      6  C   UNL     1     152.461 138.972  86.492  1.00  0.00     0.022 A 
ATOM      7  C   UNL     1     151.321 138.494  85.823  1.00  0.00     0.002 A 
ATOM      8  C   UNL     1     150.157 138.216  86.539  1.00  0.00     0.010 A 
ATOM      9  S   UNL     1     150.761 138.985  90.322  1.00  0.00    -0.128 S 
ATOM     10  Cl  UNL     1     153.880 139.780  88.720  1.00  0.00    -0.083 Cl
ENDROOT
BRANCH   1  11
ATOM     11  C   UNL     1     148.043 138.208  91.148  1.00  0.00     0.261 C 
ATOM     12  N   UNL     1     146.676 138.610  90.882  1.00  0.00    -0.347 N 
ATOM     13  O   UNL     1     148.321 137.722  92.192  1.00  0.00    -0.268 OA
ATOM     14  H   UNL     1     146.437 139.016  90.018  1.00  0.00     0.164 HD
BRANCH  12  15
ATOM     15  C   UNL     1     145.641 138.403  91.920  1.00  0.00     0.099 C 
ATOM     16  C   UNL     1     144.361 138.081  91.294  1.00  0.00     0.015 C 
ATOM     17  C   UNL     1     145.461 139.692  92.747  1.00  0.00     0.109 C 
ATOM     18  C   UNL     1     143.372 137.933  92.325  1.00  0.00     0.021 C 
ATOM     19  C   UNL     1     143.973 139.201  90.440  1.00  0.00     0.021 C 
ATOM     20  N   UNL     1     144.144 140.154  92.685  1.00  0.00    -0.301 NA
ATOM     21  C   UNL     1     143.275 139.188  93.141  1.00  0.00     0.085 C 
ATOM     22  C   UNL     1     143.817 140.482  91.346  1.00  0.00     0.085 C 
ENDBRANCH  12  15
ENDBRANCH   1  11
TORSDOF 2
ENDMDL
MODEL 17
REMARK VINA RESULT:    -5.312      4.912      5.676
REMARK INTER + INTRA:          -6.021
REMARK INTER:                  -5.696
REMARK INTRA:                  -0.325
REMARK UNBOUND:                -0.088
REMARK SMILES O=C(N[C@H]1CN2CCC1CC2)c1cc2cccc(Cl)c2s1
REMARK SMILES IDX 12 1 13 2 14 3 20 4 18 5 17 6 16 7 15 8 21 9 19 10 2 11 3 12
REMARK SMILES IDX 1 13 4 15 9 16 5 17 8 18 10 19 6 20 7 21 11 22
REMARK H PARENT 3 14
ROOT
ATOM      1  C   UNL     1     144.053 142.592  95.328  1.00  0.00     0.093 A 
ATOM      2  C   UNL     1     143.633 143.346  96.370  1.00  0.00     0.034 A 
ATOM      3  C   UNL     1     142.363 143.067  96.976  1.00  0.00    -0.005 A 
ATOM      4  C   UNL     1     141.671 141.965  96.364  1.00  0.00     0.054 A 
ATOM      5  C   UNL     1     140.441 141.582  96.842  1.00  0.00     0.058 A 
ATOM      6  C   UNL     1     139.869 142.266  97.919  1.00  0.00     0.022 A 
ATOM      7  C   UNL     1     140.547 143.344  98.513  1.00  0.00     0.002 A 
ATOM      8  C   UNL     1     141.796 143.734  98.030  1.00  0.00     0.010 A 
ATOM      9  S   UNL     1     142.796 141.422  95.042  1.00  0.00    -0.128 S 
ATOM     10  Cl  UNL     1     139.575 140.217  96.090  1.00  0.00    -0.083 Cl
ENDROOT
BRANCH   1  11
ATOM     11  C   UNL     1     145.377 142.762  94.574  1.00  0.00     0.261 C 
ATOM     12  N   UNL     1     146.375 143.704  95.041  1.00  0.00    -0.347 N 
ATOM     13  O   UNL     1     145.583 142.121  93.600  1.00  0.00    -0.268 OA
ATOM     14  H   UNL     1     146.211 144.243  95.848  1.00  0.00     0.164 HD
BRANCH  12  15
ATOM     15  C   UNL     1     147.645 143.849  94.293  1.00  0.00     0.099 C 
ATOM     16  C   UNL     1     148.772 143.874  95.221  1.00  0.00     0.015 C 
ATOM     17  C   UNL     1     147.642 145.173  93.504  1.00  0.00     0.109 C 
ATOM     18  C   UNL     1     149.981 144.062  94.469  1.00  0.00     0.021 C 
ATOM     19  C   UNL     1     148.605 145.016  96.117  1.00  0.00     0.021 C 
ATOM     20  N   UNL     1     148.716 145.987  93.876  1.00  0.00    -0.301 NA
ATOM     21  C   UNL     1     149.909 145.330  93.671  1.00  0.00     0.085 C 
ATOM     22  C   UNL     1     148.601 146.330  95.246  1.00  0.00     0.085 C 
ENDBRANCH  12  15
ENDBRANCH   1  11
TORSDOF 2
ENDMDL
MODEL 18
REMARK VINA RESULT:    -5.277     10.818     11.677
REMARK INTER + INTRA:          -5.982
REMARK INTER:                  -5.686
REMARK INTRA:                  -0.296
REMARK UNBOUND:                -0.088
REMARK SMILES O=C(N[C@H]1CN2CCC1CC2)c1cc2cccc(Cl)c2s1
REMARK SMILES IDX 12 1 13 2 14 3 20 4 18 5 17 6 16 7 15 8 21 9 19 10 2 11 3 12
REMARK SMILES IDX 1 13 4 15 9 16 5 17 8 18 10 19 6 20 7 21 11 22
REMARK H PARENT 3 14
ROOT
ATOM      1  C   UNL     1     151.349 136.895  89.764  1.00  0.00     0.093 A 
ATOM      2  C   UNL     1     150.959 138.075  90.298  1.00  0.00     0.034 A 
ATOM      3  C   UNL     1     151.419 138.445  91.606  1.00  0.00    -0.005 A 
ATOM      4  C   UNL     1     152.281 137.460  92.204  1.00  0.00     0.054 A 
ATOM      5  C   UNL     1     152.800 137.680  93.457  1.00  0.00     0.058 A 
ATOM      6  C   UNL     1     152.488 138.858  94.143  1.00  0.00     0.022 A 
ATOM      7  C   UNL     1     151.645 139.817  93.557  1.00  0.00     0.002 A 
ATOM      8  C   UNL     1     151.117 139.596  92.284  1.00  0.00     0.010 A 
ATOM      9  S   UNL     1     152.380 136.147  90.951  1.00  0.00    -0.128 S 
ATOM     10  Cl  UNL     1     153.869 136.466  94.207  1.00  0.00    -0.083 Cl
ENDROOT
BRANCH   1  11
ATOM     11  C   UNL     1     150.945 136.357  88.387  1.00  0.00     0.261 C 
ATOM     12  N   UNL     1     149.607 135.846  88.158  1.00  0.00    -0.347 N 
ATOM     13  O   UNL     1     151.734 136.356  87.504  1.00  0.00    -0.268 OA
ATOM     14  H   UNL     1     148.947 135.841  88.887  1.00  0.00     0.164 HD
BRANCH  12  15
ATOM     15  C   UNL     1     149.243 135.332  86.818  1.00  0.00     0.099 C 
ATOM     16  C   UNL     1     148.712 136.414  85.995  1.00  0.00     0.015 C 
ATOM     17  C   UNL     1     148.156 134.248  86.949  1.00  0.00     0.109 C 
ATOM     18  C   UNL     1     148.327 135.874  84.721  1.00  0.00     0.021 C 
ATOM     19  C   UNL     1     147.519 136.946  86.649  1.00  0.00     0.021 C 
ATOM     20  N   UNL     1     147.008 134.593  86.231  1.00  0.00    -0.301 NA
ATOM     21  C   UNL     1     147.314 134.782  84.900  1.00  0.00     0.085 C 
ATOM     22  C   UNL     1     146.457 135.787  86.758  1.00  0.00     0.085 C 
ENDBRANCH  12  15
ENDBRANCH   1  11
TORSDOF 2
ENDMDL
MODEL 19
REMARK VINA RESULT:    -4.925     10.660     11.248
REMARK INTER + INTRA:          -5.589
REMARK INTER:                  -5.280
REMARK INTRA:                  -0.309
REMARK UNBOUND:                -0.088
REMARK SMILES O=C(N[C@H]1CN2CCC1CC2)c1cc2cccc(Cl)c2s1
REMARK SMILES IDX 12 1 13 2 14 3 20 4 18 5 17 6 16 7 15 8 21 9 19 10 2 11 3 12
REMARK SMILES IDX 1 13 4 15 9 16 5 17 8 18 10 19 6 20 7 21 11 22
REMARK H PARENT 3 14
ROOT
ATOM      1  C   UNL     1     150.740 137.173  90.753  1.00  0.00     0.093 A 
ATOM      2  C   UNL     1     151.297 136.751  91.912  1.00  0.00     0.034 A 
ATOM      3  C   UNL     1     151.782 137.718  92.855  1.00  0.00    -0.005 A 
ATOM      4  C   UNL     1     151.598 139.077  92.421  1.00  0.00     0.054 A 
ATOM      5  C   UNL     1     152.014 140.111  93.224  1.00  0.00     0.058 A 
ATOM      6  C   UNL     1     152.612 139.838  94.458  1.00  0.00     0.022 A 
ATOM      7  C   UNL     1     152.791 138.509  94.879  1.00  0.00     0.002 A 
ATOM      8  C   UNL     1     152.369 137.457  94.065  1.00  0.00     0.010 A 
ATOM      9  S   UNL     1     150.799 138.912  90.796  1.00  0.00    -0.128 S 
ATOM     10  Cl  UNL     1     151.792 141.799  92.694  1.00  0.00    -0.083 Cl
ENDROOT
BRANCH   1  11
ATOM     11  C   UNL     1     150.180 136.272  89.648  1.00  0.00     0.261 C 
ATOM     12  N   UNL     1     149.868 136.816  88.340  1.00  0.00    -0.347 N 
ATOM     13  O   UNL     1     149.999 135.122  89.865  1.00  0.00    -0.268 OA
ATOM     14  H   UNL     1     150.013 137.770  88.152  1.00  0.00     0.164 HD
BRANCH  12  15
ATOM     15  C   UNL     1     149.328 135.922  87.290  1.00  0.00     0.099 C 
ATOM     16  C   UNL     1     150.239 135.882  86.150  1.00  0.00     0.015 C 
ATOM     17  C   UNL     1     147.966 136.453  86.798  1.00  0.00     0.109 C 
ATOM     18  C   UNL     1     149.665 135.045  85.134  1.00  0.00     0.021 C 
ATOM     19  C   UNL     1     150.367 137.235  85.616  1.00  0.00     0.021 C 
ATOM     20  N   UNL     1     147.988 136.708  85.425  1.00  0.00    -0.301 NA
ATOM     21  C   UNL     1     148.316 135.564  84.730  1.00  0.00     0.085 C 
ATOM     22  C   UNL     1     148.943 137.716  85.143  1.00  0.00     0.085 C 
ENDBRANCH  12  15
ENDBRANCH   1  11
TORSDOF 2
ENDMDL
