MODEL 1
REMARK VINA RESULT:    14.705      0.000      0.000
REMARK INTER + INTRA:          19.882
REMARK INTER:                  20.723
REMARK INTRA:                  -0.840
REMARK UNBOUND:                -0.840
REMARK SMILES Cc1ccc(NC(=O)c2ccc(CN3CCN(C)CC3)cc2)cc1Nc1nc(-c2cccnc2)cs1
REMARK SMILES IDX 6 1 7 2 8 3 5 5 2 6 3 7 24 8 4 9 23 10 1 11 25 12 26 14
REMARK SMILES IDX 27 15 36 16 28 17 35 18 29 19 30 20 34 21 31 22 33 23 32 24
REMARK SMILES IDX 9 25 10 26 22 27 11 28 21 29 12 30 13 31 14 32 15 33 20 34
REMARK SMILES IDX 16 35 19 36 17 37 18 38
REMARK H PARENT 6 4 25 13
ROOT
ATOM      1  N   UNL     1      30.986  27.132  46.009  1.00  0.00    -0.322 N 
ATOM      2  C   UNL     1      30.854  28.462  46.368  1.00  0.00     0.255 C 
ATOM      3  O   UNL     1      30.059  28.932  47.172  1.00  0.00    -0.269 OA
ATOM      4  H   UNL     1      31.788  26.893  45.443  1.00  0.00     0.170 HD
ENDROOT
BRANCH   1   5
ATOM      5  C   UNL     1      30.197  26.047  46.445  1.00  0.00     0.043 A 
ATOM      6  C   UNL     1      28.757  23.825  47.427  1.00  0.00    -0.027 A 
ATOM      7  C   UNL     1      30.122  23.969  47.703  1.00  0.00     0.008 A 
ATOM      8  C   UNL     1      28.115  24.787  46.625  1.00  0.00     0.045 A 
ATOM      9  C   UNL     1      30.833  25.070  47.218  1.00  0.00     0.026 A 
ATOM     10  C   UNL     1      28.844  25.891  46.145  1.00  0.00     0.052 A 
ATOM     11  C   UNL     1      28.021  22.629  47.966  1.00  0.00     0.046 C 
BRANCH   8  12
ATOM     12  N   UNL     1      26.748  24.652  46.286  1.00  0.00    -0.331 N 
ATOM     13  H   UNL     1      26.168  24.654  47.121  1.00  0.00     0.169 HD
BRANCH  12  14
ATOM     14  C   UNL     1      26.151  25.363  45.290  1.00  0.00     0.187 A 
ATOM     15  N   UNL     1      26.171  24.940  44.044  1.00  0.00    -0.220 NA
ATOM     16  S   UNL     1      25.338  26.873  45.503  1.00  0.00    -0.105 S 
ATOM     17  C   UNL     1      25.528  25.827  43.193  1.00  0.00     0.085 A 
ATOM     18  C   UNL     1      25.003  26.936  43.825  1.00  0.00     0.097 A 
BRANCH  17  19
ATOM     19  C   UNL     1      25.446  25.558  41.761  1.00  0.00     0.019 A 
ATOM     20  C   UNL     1      25.164  24.296  41.227  1.00  0.00     0.013 A 
ATOM     21  C   UNL     1      25.643  26.593  40.847  1.00  0.00     0.121 A 
ATOM     22  C   UNL     1      25.093  24.123  39.843  1.00  0.00     0.021 A 
ATOM     23  N   UNL     1      25.581  26.454  39.496  1.00  0.00    -0.264 NA
ATOM     24  C   UNL     1      25.306  25.221  39.028  1.00  0.00     0.111 A 
ENDBRANCH  17  19
ENDBRANCH  12  14
ENDBRANCH   8  12
ENDBRANCH   1   5
BRANCH   2  25
ATOM     25  C   UNL     1      31.838  29.376  45.724  1.00  0.00     0.040 A 
ATOM     26  C   UNL     1      32.371  29.017  44.482  1.00  0.00     0.014 A 
ATOM     27  C   UNL     1      32.246  30.567  46.338  1.00  0.00     0.014 A 
ATOM     28  C   UNL     1      33.281  29.861  43.842  1.00  0.00     0.006 A 
ATOM     29  C   UNL     1      33.160  31.408  45.696  1.00  0.00     0.006 A 
ATOM     30  C   UNL     1      33.676  31.069  44.437  1.00  0.00    -0.034 A 
BRANCH  30  31
ATOM     31  C   UNL     1      34.679  31.976  43.746  1.00  0.00     0.120 C 
BRANCH  31  32
ATOM     32  N   UNL     1      36.012  31.358  43.621  1.00  0.00    -0.297 NA
ATOM     33  C   UNL     1      37.068  32.378  43.758  1.00  0.00     0.100 C 
ATOM     34  C   UNL     1      36.171  30.659  42.322  1.00  0.00     0.100 C 
ATOM     35  C   UNL     1      37.171  33.398  42.592  1.00  0.00     0.099 C 
ATOM     36  C   UNL     1      36.883  31.453  41.193  1.00  0.00     0.099 C 
ATOM     37  N   UNL     1      36.658  32.900  41.301  1.00  0.00    -0.304 NA
ATOM     38  C   UNL     1      37.243  33.627  40.180  1.00  0.00     0.105 C 
ENDBRANCH  31  32
ENDBRANCH  30  31
ENDBRANCH   2  25
TORSDOF 7
ENDMDL
MODEL 2
REMARK VINA RESULT:    16.472      0.851      1.360
REMARK INTER + INTRA:          22.372
REMARK INTER:                  23.159
REMARK INTRA:                  -0.787
REMARK UNBOUND:                -0.840
REMARK SMILES Cc1ccc(NC(=O)c2ccc(CN3CCN(C)CC3)cc2)cc1Nc1nc(-c2cccnc2)cs1
REMARK SMILES IDX 6 1 7 2 8 3 5 5 2 6 3 7 24 8 4 9 23 10 1 11 25 12 26 14
REMARK SMILES IDX 27 15 36 16 28 17 35 18 29 19 30 20 34 21 31 22 33 23 32 24
REMARK SMILES IDX 9 25 10 26 22 27 11 28 21 29 12 30 13 31 14 32 15 33 20 34
REMARK SMILES IDX 16 35 19 36 17 37 18 38
REMARK H PARENT 6 4 25 13
ROOT
ATOM      1  N   UNL     1      30.919  27.333  46.061  1.00  0.00    -0.322 N 
ATOM      2  C   UNL     1      30.876  28.614  46.582  1.00  0.00     0.255 C 
ATOM      3  O   UNL     1      30.272  28.982  47.582  1.00  0.00    -0.269 OA
ATOM      4  H   UNL     1      31.582  27.169  45.316  1.00  0.00     0.170 HD
ENDROOT
BRANCH   1   5
ATOM      5  C   UNL     1      30.235  26.193  46.535  1.00  0.00     0.043 A 
ATOM      6  C   UNL     1      28.973  23.916  47.629  1.00  0.00    -0.027 A 
ATOM      7  C   UNL     1      30.162  24.408  48.181  1.00  0.00     0.008 A 
ATOM      8  C   UNL     1      28.429  24.553  46.498  1.00  0.00     0.045 A 
ATOM      9  C   UNL     1      30.784  25.536  47.640  1.00  0.00     0.026 A 
ATOM     10  C   UNL     1      29.065  25.689  45.965  1.00  0.00     0.052 A 
ATOM     11  C   UNL     1      28.329  22.700  48.237  1.00  0.00     0.046 C 
BRANCH   8  12
ATOM     12  N   UNL     1      27.254  24.058  45.884  1.00  0.00    -0.331 N 
ATOM     13  H   UNL     1      26.666  23.581  46.563  1.00  0.00     0.169 HD
BRANCH  12  14
ATOM     14  C   UNL     1      26.493  24.793  45.027  1.00  0.00     0.187 A 
ATOM     15  N   UNL     1      26.476  24.533  43.737  1.00  0.00    -0.220 NA
ATOM     16  S   UNL     1      25.501  26.132  45.484  1.00  0.00    -0.105 S 
ATOM     17  C   UNL     1      25.655  25.416  43.049  1.00  0.00     0.085 A 
ATOM     18  C   UNL     1      25.035  26.351  43.851  1.00  0.00     0.097 A 
BRANCH  17  19
ATOM     19  C   UNL     1      25.503  25.316  41.601  1.00  0.00     0.019 A 
ATOM     20  C   UNL     1      25.013  24.177  40.953  1.00  0.00     0.013 A 
ATOM     21  C   UNL     1      25.843  26.398  40.789  1.00  0.00     0.121 A 
ATOM     22  C   UNL     1      24.887  24.164  39.562  1.00  0.00     0.021 A 
ATOM     23  N   UNL     1      25.732  26.414  39.435  1.00  0.00    -0.264 NA
ATOM     24  C   UNL     1      25.255  25.296  38.855  1.00  0.00     0.111 A 
ENDBRANCH  17  19
ENDBRANCH  12  14
ENDBRANCH   8  12
ENDBRANCH   1   5
BRANCH   2  25
ATOM     25  C   UNL     1      31.706  29.608  45.846  1.00  0.00     0.040 A 
ATOM     26  C   UNL     1      31.858  30.886  46.392  1.00  0.00     0.014 A 
ATOM     27  C   UNL     1      32.317  29.295  44.626  1.00  0.00     0.014 A 
ATOM     28  C   UNL     1      32.645  31.836  45.739  1.00  0.00     0.006 A 
ATOM     29  C   UNL     1      33.101  30.250  43.971  1.00  0.00     0.006 A 
ATOM     30  C   UNL     1      33.284  31.525  44.528  1.00  0.00    -0.034 A 
BRANCH  30  31
ATOM     31  C   UNL     1      34.124  32.566  43.811  1.00  0.00     0.120 C 
BRANCH  31  32
ATOM     32  N   UNL     1      35.505  32.633  44.324  1.00  0.00    -0.297 NA
ATOM     33  C   UNL     1      36.401  33.232  43.317  1.00  0.00     0.100 C 
ATOM     34  C   UNL     1      36.015  31.291  44.697  1.00  0.00     0.100 C 
ATOM     35  C   UNL     1      36.660  32.369  42.052  1.00  0.00     0.099 C 
ATOM     36  C   UNL     1      36.880  30.560  43.633  1.00  0.00     0.099 C 
ATOM     37  N   UNL     1      36.497  30.918  42.262  1.00  0.00    -0.304 NA
ATOM     38  C   UNL     1      37.243  30.150  41.271  1.00  0.00     0.105 C 
ENDBRANCH  31  32
ENDBRANCH  30  31
ENDBRANCH   2  25
TORSDOF 7
ENDMDL
MODEL 3
REMARK VINA RESULT:    17.237      2.240      9.946
REMARK INTER + INTRA:          23.450
REMARK INTER:                  24.539
REMARK INTRA:                  -1.089
REMARK UNBOUND:                -0.840
REMARK SMILES Cc1ccc(NC(=O)c2ccc(CN3CCN(C)CC3)cc2)cc1Nc1nc(-c2cccnc2)cs1
REMARK SMILES IDX 6 1 7 2 8 3 5 5 2 6 3 7 24 8 4 9 23 10 1 11 25 12 26 14
REMARK SMILES IDX 27 15 36 16 28 17 35 18 29 19 30 20 34 21 31 22 33 23 32 24
REMARK SMILES IDX 9 25 10 26 22 27 11 28 21 29 12 30 13 31 14 32 15 33 20 34
REMARK SMILES IDX 16 35 19 36 17 37 18 38
REMARK H PARENT 6 4 25 13
ROOT
ATOM      1  N   UNL     1      27.622  25.192  44.853  1.00  0.00    -0.322 N 
ATOM      2  C   UNL     1      26.327  25.678  44.897  1.00  0.00     0.255 C 
ATOM      3  O   UNL     1      25.762  26.184  45.858  1.00  0.00    -0.269 OA
ATOM      4  H   UNL     1      27.982  24.943  43.943  1.00  0.00     0.170 HD
ENDROOT
BRANCH   1   5
ATOM      5  C   UNL     1      28.545  25.123  45.918  1.00  0.00     0.043 A 
ATOM      6  C   UNL     1      30.391  24.802  48.031  1.00  0.00    -0.027 A 
ATOM      7  C   UNL     1      29.724  23.695  47.492  1.00  0.00     0.008 A 
ATOM      8  C   UNL     1      30.106  26.085  47.527  1.00  0.00     0.045 A 
ATOM      9  C   UNL     1      28.812  23.855  46.445  1.00  0.00     0.026 A 
ATOM     10  C   UNL     1      29.187  26.230  46.472  1.00  0.00     0.052 A 
ATOM     11  C   UNL     1      31.368  24.594  49.155  1.00  0.00     0.046 C 
BRANCH   8  12
ATOM     12  N   UNL     1      30.726  27.233  48.076  1.00  0.00    -0.331 N 
ATOM     13  H   UNL     1      31.575  26.979  48.576  1.00  0.00     0.169 HD
BRANCH  12  14
ATOM     14  C   UNL     1      30.910  28.388  47.380  1.00  0.00     0.187 A 
ATOM     15  N   UNL     1      31.976  28.568  46.629  1.00  0.00    -0.220 NA
ATOM     16  S   UNL     1      29.831  29.737  47.399  1.00  0.00    -0.105 S 
ATOM     17  C   UNL     1      31.973  29.820  46.031  1.00  0.00     0.085 A 
ATOM     18  C   UNL     1      30.868  30.589  46.336  1.00  0.00     0.097 A 
BRANCH  17  19
ATOM     19  C   UNL     1      33.073  30.235  45.166  1.00  0.00     0.019 A 
ATOM     20  C   UNL     1      33.664  31.502  45.222  1.00  0.00     0.013 A 
ATOM     21  C   UNL     1      33.596  29.343  44.229  1.00  0.00     0.121 A 
ATOM     22  C   UNL     1      34.721  31.819  44.365  1.00  0.00     0.021 A 
ATOM     23  N   UNL     1      34.622  29.623  43.384  1.00  0.00    -0.264 NA
ATOM     24  C   UNL     1      35.160  30.855  43.473  1.00  0.00     0.111 A 
ENDBRANCH  17  19
ENDBRANCH  12  14
ENDBRANCH   8  12
ENDBRANCH   1   5
BRANCH   2  25
ATOM     25  C   UNL     1      25.596  25.606  43.601  1.00  0.00     0.040 A 
ATOM     26  C   UNL     1      26.211  24.964  42.521  1.00  0.00     0.014 A 
ATOM     27  C   UNL     1      24.326  26.174  43.441  1.00  0.00     0.014 A 
ATOM     28  C   UNL     1      25.545  24.861  41.298  1.00  0.00     0.006 A 
ATOM     29  C   UNL     1      23.664  26.073  42.214  1.00  0.00     0.006 A 
ATOM     30  C   UNL     1      24.261  25.405  41.135  1.00  0.00    -0.034 A 
BRANCH  30  31
ATOM     31  C   UNL     1      23.548  25.307  39.798  1.00  0.00     0.120 C 
BRANCH  31  32
ATOM     32  N   UNL     1      24.477  25.352  38.654  1.00  0.00    -0.297 NA
ATOM     33  C   UNL     1      24.617  26.734  38.157  1.00  0.00     0.100 C 
ATOM     34  C   UNL     1      24.022  24.477  37.546  1.00  0.00     0.100 C 
ATOM     35  C   UNL     1      23.360  27.329  37.465  1.00  0.00     0.099 C 
ATOM     36  C   UNL     1      23.226  25.166  36.403  1.00  0.00     0.099 C 
ATOM     37  N   UNL     1      22.455  26.322  36.879  1.00  0.00    -0.304 NA
ATOM     38  C   UNL     1      21.632  26.899  35.822  1.00  0.00     0.105 C 
ENDBRANCH  31  32
ENDBRANCH  30  31
ENDBRANCH   2  25
TORSDOF 7
ENDMDL
MODEL 4
REMARK VINA RESULT:    17.296      2.187      9.804
REMARK INTER + INTRA:          23.533
REMARK INTER:                  23.665
REMARK INTRA:                  -0.132
REMARK UNBOUND:                -0.840
REMARK SMILES Cc1ccc(NC(=O)c2ccc(CN3CCN(C)CC3)cc2)cc1Nc1nc(-c2cccnc2)cs1
REMARK SMILES IDX 6 1 7 2 8 3 5 5 2 6 3 7 24 8 4 9 23 10 1 11 25 12 26 14
REMARK SMILES IDX 27 15 36 16 28 17 35 18 29 19 30 20 34 21 31 22 33 23 32 24
REMARK SMILES IDX 9 25 10 26 22 27 11 28 21 29 12 30 13 31 14 32 15 33 20 34
REMARK SMILES IDX 16 35 19 36 17 37 18 38
REMARK H PARENT 6 4 25 13
ROOT
ATOM      1  N   UNL     1      27.509  25.332  44.882  1.00  0.00    -0.322 N 
ATOM      2  C   UNL     1      26.183  25.715  44.981  1.00  0.00     0.255 C 
ATOM      3  O   UNL     1      25.596  26.079  45.992  1.00  0.00    -0.269 OA
ATOM      4  H   UNL     1      27.875  25.203  43.948  1.00  0.00     0.170 HD
ENDROOT
BRANCH   1   5
ATOM      5  C   UNL     1      28.448  25.222  45.929  1.00  0.00     0.043 A 
ATOM      6  C   UNL     1      30.320  24.821  48.005  1.00  0.00    -0.027 A 
ATOM      7  C   UNL     1      29.611  23.741  47.465  1.00  0.00     0.008 A 
ATOM      8  C   UNL     1      30.065  26.117  47.522  1.00  0.00     0.045 A 
ATOM      9  C   UNL     1      28.686  23.940  46.437  1.00  0.00     0.026 A 
ATOM     10  C   UNL     1      29.133  26.303  46.485  1.00  0.00     0.052 A 
ATOM     11  C   UNL     1      31.310  24.570  49.110  1.00  0.00     0.046 C 
BRANCH   8  12
ATOM     12  N   UNL     1      30.729  27.240  48.073  1.00  0.00    -0.331 N 
ATOM     13  H   UNL     1      31.585  26.956  48.543  1.00  0.00     0.169 HD
BRANCH  12  14
ATOM     14  C   UNL     1      30.920  28.403  47.393  1.00  0.00     0.187 A 
ATOM     15  N   UNL     1      31.982  28.582  46.636  1.00  0.00    -0.220 NA
ATOM     16  S   UNL     1      29.858  29.764  47.442  1.00  0.00    -0.105 S 
ATOM     17  C   UNL     1      31.989  29.843  46.057  1.00  0.00     0.085 A 
ATOM     18  C   UNL     1      30.896  30.620  46.383  1.00  0.00     0.097 A 
BRANCH  17  19
ATOM     19  C   UNL     1      33.087  30.258  45.189  1.00  0.00     0.019 A 
ATOM     20  C   UNL     1      33.673  31.527  45.239  1.00  0.00     0.013 A 
ATOM     21  C   UNL     1      33.611  29.364  44.255  1.00  0.00     0.121 A 
ATOM     22  C   UNL     1      34.728  31.843  44.380  1.00  0.00     0.021 A 
ATOM     23  N   UNL     1      34.635  29.644  43.407  1.00  0.00    -0.264 NA
ATOM     24  C   UNL     1      35.169  30.878  43.491  1.00  0.00     0.111 A 
ENDBRANCH  17  19
ENDBRANCH  12  14
ENDBRANCH   8  12
ENDBRANCH   1   5
BRANCH   2  25
ATOM     25  C   UNL     1      25.443  25.722  43.688  1.00  0.00     0.040 A 
ATOM     26  C   UNL     1      25.960  24.986  42.618  1.00  0.00     0.014 A 
ATOM     27  C   UNL     1      24.261  26.455  43.522  1.00  0.00     0.014 A 
ATOM     28  C   UNL     1      25.282  24.955  41.399  1.00  0.00     0.006 A 
ATOM     29  C   UNL     1      23.586  26.425  42.298  1.00  0.00     0.006 A 
ATOM     30  C   UNL     1      24.083  25.665  41.229  1.00  0.00    -0.034 A 
BRANCH  30  31
ATOM     31  C   UNL     1      23.357  25.643  39.896  1.00  0.00     0.120 C 
BRANCH  31  32
ATOM     32  N   UNL     1      24.148  26.248  38.808  1.00  0.00    -0.297 NA
ATOM     33  C   UNL     1      23.572  25.900  37.496  1.00  0.00     0.100 C 
ATOM     34  C   UNL     1      25.564  25.809  38.853  1.00  0.00     0.100 C 
ATOM     35  C   UNL     1      23.700  24.408  37.081  1.00  0.00     0.099 C 
ATOM     36  C   UNL     1      25.951  24.625  37.925  1.00  0.00     0.099 C 
ATOM     37  N   UNL     1      24.832  23.699  37.708  1.00  0.00    -0.304 NA
ATOM     38  C   UNL     1      25.232  22.538  36.920  1.00  0.00     0.105 C 
ENDBRANCH  31  32
ENDBRANCH  30  31
ENDBRANCH   2  25
TORSDOF 7
ENDMDL
MODEL 5
REMARK VINA RESULT:    17.491      5.995      7.763
REMARK INTER + INTRA:          23.808
REMARK INTER:                  24.323
REMARK INTRA:                  -0.515
REMARK UNBOUND:                -0.840
REMARK SMILES Cc1ccc(NC(=O)c2ccc(CN3CCN(C)CC3)cc2)cc1Nc1nc(-c2cccnc2)cs1
REMARK SMILES IDX 6 1 7 2 8 3 5 5 2 6 3 7 24 8 4 9 23 10 1 11 25 12 26 14
REMARK SMILES IDX 27 15 36 16 28 17 35 18 29 19 30 20 34 21 31 22 33 23 32 24
REMARK SMILES IDX 9 25 10 26 22 27 11 28 21 29 12 30 13 31 14 32 15 33 20 34
REMARK SMILES IDX 16 35 19 36 17 37 18 38
REMARK H PARENT 6 4 25 13
ROOT
ATOM      1  N   UNL     1      26.991  25.509  45.818  1.00  0.00    -0.322 N 
ATOM      2  C   UNL     1      27.792  24.414  45.548  1.00  0.00     0.255 C 
ATOM      3  O   UNL     1      27.736  23.685  44.566  1.00  0.00    -0.269 OA
ATOM      4  H   UNL     1      27.265  26.090  46.598  1.00  0.00     0.170 HD
ENDROOT
BRANCH   1   5
ATOM      5  C   UNL     1      25.904  25.983  45.053  1.00  0.00     0.043 A 
ATOM      6  C   UNL     1      23.630  26.932  43.673  1.00  0.00    -0.027 A 
ATOM      7  C   UNL     1      23.525  26.475  44.993  1.00  0.00     0.008 A 
ATOM      8  C   UNL     1      24.880  26.882  43.029  1.00  0.00     0.045 A 
ATOM      9  C   UNL     1      24.652  26.008  45.675  1.00  0.00     0.026 A 
ATOM     10  C   UNL     1      26.006  26.410  43.729  1.00  0.00     0.052 A 
ATOM     11  C   UNL     1      22.397  27.430  42.969  1.00  0.00     0.046 C 
BRANCH   8  12
ATOM     12  N   UNL     1      25.017  27.291  41.681  1.00  0.00    -0.331 N 
ATOM     13  H   UNL     1      25.754  27.985  41.589  1.00  0.00     0.169 HD
BRANCH  12  14
ATOM     14  C   UNL     1      25.048  26.421  40.635  1.00  0.00     0.187 A 
ATOM     15  N   UNL     1      24.181  26.509  39.648  1.00  0.00    -0.220 NA
ATOM     16  S   UNL     1      26.165  25.113  40.470  1.00  0.00    -0.105 S 
ATOM     17  C   UNL     1      24.379  25.511  38.705  1.00  0.00     0.085 A 
ATOM     18  C   UNL     1      25.429  24.664  38.991  1.00  0.00     0.097 A 
BRANCH  17  19
ATOM     19  C   UNL     1      23.516  25.415  37.531  1.00  0.00     0.019 A 
ATOM     20  C   UNL     1      23.412  24.265  36.742  1.00  0.00     0.013 A 
ATOM     21  C   UNL     1      22.730  26.504  37.154  1.00  0.00     0.121 A 
ATOM     22  C   UNL     1      22.554  24.249  35.639  1.00  0.00     0.021 A 
ATOM     23  N   UNL     1      21.888  26.518  36.088  1.00  0.00    -0.264 NA
ATOM     24  C   UNL     1      21.821  25.388  35.356  1.00  0.00     0.111 A 
ENDBRANCH  17  19
ENDBRANCH  12  14
ENDBRANCH   8  12
ENDBRANCH   1   5
BRANCH   2  25
ATOM     25  C   UNL     1      28.857  24.163  46.560  1.00  0.00     0.040 A 
ATOM     26  C   UNL     1      29.425  22.888  46.630  1.00  0.00     0.014 A 
ATOM     27  C   UNL     1      29.284  25.166  47.440  1.00  0.00     0.014 A 
ATOM     28  C   UNL     1      30.438  22.625  47.553  1.00  0.00     0.006 A 
ATOM     29  C   UNL     1      30.296  24.897  48.367  1.00  0.00     0.006 A 
ATOM     30  C   UNL     1      30.892  23.628  48.424  1.00  0.00    -0.034 A 
BRANCH  30  31
ATOM     31  C   UNL     1      31.982  23.333  49.438  1.00  0.00     0.120 C 
BRANCH  31  32
ATOM     32  N   UNL     1      33.273  23.948  49.080  1.00  0.00    -0.297 NA
ATOM     33  C   UNL     1      34.371  23.318  49.837  1.00  0.00     0.100 C 
ATOM     34  C   UNL     1      33.274  25.408  49.340  1.00  0.00     0.100 C 
ATOM     35  C   UNL     1      34.387  23.607  51.363  1.00  0.00     0.099 C 
ATOM     36  C   UNL     1      33.892  25.871  50.688  1.00  0.00     0.099 C 
ATOM     37  N   UNL     1      33.727  24.869  51.749  1.00  0.00    -0.304 NA
ATOM     38  C   UNL     1      34.217  25.353  53.035  1.00  0.00     0.105 C 
ENDBRANCH  31  32
ENDBRANCH  30  31
ENDBRANCH   2  25
TORSDOF 7
ENDMDL
