MODEL 1
REMARK VINA RESULT:    -7.537      0.000      0.000
REMARK INTER + INTRA:          -8.736
REMARK INTER:                  -8.418
REMARK INTRA:                  -0.318
REMARK UNBOUND:                -0.318
REMARK SMILES O=C(N[C@H]1CN2CCC1CC2)c1cc2cccc(Cl)c2s1
REMARK SMILES IDX 12 1 13 2 14 3 20 4 18 5 17 6 16 7 15 8 21 9 19 10 2 11 3 12
REMARK SMILES IDX 1 13 4 15 9 16 5 17 8 18 10 19 6 20 7 21 11 22
REMARK H PARENT 3 14
ROOT
ATOM      1  C   UNL     1     143.542 138.622  90.866  1.00  0.00     0.093 A 
ATOM      2  C   UNL     1     143.794 137.312  91.092  1.00  0.00     0.034 A 
ATOM      3  C   UNL     1     145.153 136.864  91.196  1.00  0.00    -0.005 A 
ATOM      4  C   UNL     1     146.114 137.923  91.042  1.00  0.00     0.054 A 
ATOM      5  C   UNL     1     147.457 137.641  91.120  1.00  0.00     0.058 A 
ATOM      6  C   UNL     1     147.881 136.328  91.349  1.00  0.00     0.022 A 
ATOM      7  C   UNL     1     146.939 135.296  91.498  1.00  0.00     0.002 A 
ATOM      8  C   UNL     1     145.575 135.579  91.419  1.00  0.00     0.010 A 
ATOM      9  S   UNL     1     145.094 139.403  90.772  1.00  0.00    -0.128 S 
ATOM     10  Cl  UNL     1     148.657 138.946  90.929  1.00  0.00    -0.083 Cl
ENDROOT
BRANCH   1  11
ATOM     11  C   UNL     1     142.153 139.256  90.728  1.00  0.00     0.261 C 
ATOM     12  N   UNL     1     141.009 138.450  90.349  1.00  0.00    -0.347 N 
ATOM     13  O   UNL     1     142.016 140.415  90.929  1.00  0.00    -0.268 OA
ATOM     14  H   UNL     1     141.115 137.487  90.178  1.00  0.00     0.164 HD
BRANCH  12  15
ATOM     15  C   UNL     1     139.678 139.088  90.222  1.00  0.00     0.099 C 
ATOM     16  C   UNL     1     138.642 138.187  90.717  1.00  0.00     0.015 C 
ATOM     17  C   UNL     1     139.382 139.396  88.741  1.00  0.00     0.109 C 
ATOM     18  C   UNL     1     137.364 138.817  90.538  1.00  0.00     0.021 C 
ATOM     19  C   UNL     1     138.672 136.967  89.914  1.00  0.00     0.021 C 
ATOM     20  N   UNL     1     138.213 138.759  88.316  1.00  0.00    -0.301 NA
ATOM     21  C   UNL     1     137.144 139.152  89.092  1.00  0.00     0.085 C 
ATOM     22  C   UNL     1     138.372 137.355  88.416  1.00  0.00     0.085 C 
ENDBRANCH  12  15
ENDBRANCH   1  11
TORSDOF 2
ENDMDL
MODEL 2
REMARK VINA RESULT:    -7.495      2.744      3.499
REMARK INTER + INTRA:          -8.689
REMARK INTER:                  -8.361
REMARK INTRA:                  -0.327
REMARK UNBOUND:                -0.318
REMARK SMILES O=C(N[C@H]1CN2CCC1CC2)c1cc2cccc(Cl)c2s1
REMARK SMILES IDX 12 1 13 2 14 3 20 4 18 5 17 6 16 7 15 8 21 9 19 10 2 11 3 12
REMARK SMILES IDX 1 13 4 15 9 16 5 17 8 18 10 19 6 20 7 21 11 22
REMARK H PARENT 3 14
ROOT
ATOM      1  C   UNL     1     143.767 139.860  90.112  1.00  0.00     0.093 A 
ATOM      2  C   UNL     1     144.322 140.119  88.905  1.00  0.00     0.034 A 
ATOM      3  C   UNL     1     145.603 140.763  88.841  1.00  0.00    -0.005 A 
ATOM      4  C   UNL     1     146.154 141.060  90.136  1.00  0.00     0.054 A 
ATOM      5  C   UNL     1     147.379 141.677  90.230  1.00  0.00     0.058 A 
ATOM      6  C   UNL     1     148.081 142.012  89.068  1.00  0.00     0.022 A 
ATOM      7  C   UNL     1     147.538 141.721  87.804  1.00  0.00     0.002 A 
ATOM      8  C   UNL     1     146.295 141.095  87.706  1.00  0.00     0.010 A 
ATOM      9  S   UNL     1     144.898 140.447  91.298  1.00  0.00    -0.128 S 
ATOM     10  Cl  UNL     1     148.071 142.051  91.830  1.00  0.00    -0.083 Cl
ENDROOT
BRANCH   1  11
ATOM     11  C   UNL     1     142.412 139.184  90.349  1.00  0.00     0.261 C 
ATOM     12  N   UNL     1     141.183 139.829  89.930  1.00  0.00    -0.347 N 
ATOM     13  O   UNL     1     142.370 138.127  90.881  1.00  0.00    -0.268 OA
ATOM     14  H   UNL     1     141.209 140.708  89.489  1.00  0.00     0.164 HD
BRANCH  12  15
ATOM     15  C   UNL     1     139.887 139.154  90.171  1.00  0.00     0.099 C 
ATOM     16  C   UNL     1     139.456 138.453  88.965  1.00  0.00     0.015 C 
ATOM     17  C   UNL     1     138.811 140.196  90.533  1.00  0.00     0.109 C 
ATOM     18  C   UNL     1     138.178 137.850  89.218  1.00  0.00     0.021 C 
ATOM     19  C   UNL     1     139.298 139.435  87.895  1.00  0.00     0.021 C 
ATOM     20  N   UNL     1     137.740 140.150  89.637  1.00  0.00    -0.301 NA
ATOM     21  C   UNL     1     137.178 138.891  89.625  1.00  0.00     0.085 C 
ATOM     22  C   UNL     1     138.194 140.471  88.334  1.00  0.00     0.085 C 
ENDBRANCH  12  15
ENDBRANCH   1  11
TORSDOF 2
ENDMDL
MODEL 3
REMARK VINA RESULT:    -7.407      3.226      3.934
REMARK INTER + INTRA:          -8.591
REMARK INTER:                  -8.279
REMARK INTRA:                  -0.312
REMARK UNBOUND:                -0.318
REMARK SMILES O=C(N[C@H]1CN2CCC1CC2)c1cc2cccc(Cl)c2s1
REMARK SMILES IDX 12 1 13 2 14 3 20 4 18 5 17 6 16 7 15 8 21 9 19 10 2 11 3 12
REMARK SMILES IDX 1 13 4 15 9 16 5 17 8 18 10 19 6 20 7 21 11 22
REMARK H PARENT 3 14
ROOT
ATOM      1  C   UNL     1     143.941 140.024  89.419  1.00  0.00     0.093 A 
ATOM      2  C   UNL     1     144.972 140.680  90.002  1.00  0.00     0.034 A 
ATOM      3  C   UNL     1     146.064 141.139  89.192  1.00  0.00    -0.005 A 
ATOM      4  C   UNL     1     145.906 140.828  87.797  1.00  0.00     0.054 A 
ATOM      5  C   UNL     1     146.876 141.208  86.900  1.00  0.00     0.058 A 
ATOM      6  C   UNL     1     148.008 141.896  87.349  1.00  0.00     0.022 A 
ATOM      7  C   UNL     1     148.158 142.198  88.713  1.00  0.00     0.002 A 
ATOM      8  C   UNL     1     147.176 141.812  89.625  1.00  0.00     0.010 A 
ATOM      9  S   UNL     1     144.316 139.951  87.721  1.00  0.00    -0.128 S 
ATOM     10  Cl  UNL     1     146.692 140.826  85.169  1.00  0.00    -0.083 Cl
ENDROOT
BRANCH   1  11
ATOM     11  C   UNL     1     142.708 139.471  90.141  1.00  0.00     0.261 C 
ATOM     12  N   UNL     1     141.373 139.798  89.678  1.00  0.00    -0.347 N 
ATOM     13  O   UNL     1     142.847 138.773  91.088  1.00  0.00    -0.268 OA
ATOM     14  H   UNL     1     141.249 140.380  88.894  1.00  0.00     0.164 HD
BRANCH  12  15
ATOM     15  C   UNL     1     140.199 139.250  90.394  1.00  0.00     0.099 C 
ATOM     16  C   UNL     1     139.601 138.167  89.620  1.00  0.00     0.015 C 
ATOM     17  C   UNL     1     139.136 140.351  90.580  1.00  0.00     0.109 C 
ATOM     18  C   UNL     1     138.441 137.690  90.319  1.00  0.00     0.021 C 
ATOM     19  C   UNL     1     139.174 138.704  88.331  1.00  0.00     0.021 C 
ATOM     20  N   UNL     1     137.922 139.988  89.991  1.00  0.00    -0.301 NA
ATOM     21  C   UNL     1     137.462 138.807  90.531  1.00  0.00     0.085 C 
ATOM     22  C   UNL     1     138.100 139.827  88.595  1.00  0.00     0.085 C 
ENDBRANCH  12  15
ENDBRANCH   1  11
TORSDOF 2
ENDMDL
MODEL 4
REMARK VINA RESULT:    -7.350      1.475      1.837
REMARK INTER + INTRA:          -8.527
REMARK INTER:                  -8.246
REMARK INTRA:                  -0.281
REMARK UNBOUND:                -0.318
REMARK SMILES O=C(N[C@H]1CN2CCC1CC2)c1cc2cccc(Cl)c2s1
REMARK SMILES IDX 12 1 13 2 14 3 20 4 18 5 17 6 16 7 15 8 21 9 19 10 2 11 3 12
REMARK SMILES IDX 1 13 4 15 9 16 5 17 8 18 10 19 6 20 7 21 11 22
REMARK H PARENT 3 14
ROOT
ATOM      1  C   UNL     1     143.545 138.239  90.688  1.00  0.00     0.093 A 
ATOM      2  C   UNL     1     144.745 138.728  90.299  1.00  0.00     0.034 A 
ATOM      3  C   UNL     1     145.918 137.913  90.439  1.00  0.00    -0.005 A 
ATOM      4  C   UNL     1     145.646 136.617  91.001  1.00  0.00     0.054 A 
ATOM      5  C   UNL     1     146.675 135.728  91.193  1.00  0.00     0.058 A 
ATOM      6  C   UNL     1     147.980 136.086  90.840  1.00  0.00     0.022 A 
ATOM      7  C   UNL     1     148.243 137.353  90.292  1.00  0.00     0.002 A 
ATOM      8  C   UNL     1     147.199 138.258  90.096  1.00  0.00     0.010 A 
ATOM      9  S   UNL     1     143.850 136.632  91.283  1.00  0.00    -0.128 S 
ATOM     10  Cl  UNL     1     146.349 134.119  91.890  1.00  0.00    -0.083 Cl
ENDROOT
BRANCH   1  11
ATOM     11  C   UNL     1     142.206 138.980  90.606  1.00  0.00     0.261 C 
ATOM     12  N   UNL     1     140.977 138.256  90.346  1.00  0.00    -0.347 N 
ATOM     13  O   UNL     1     142.177 140.155  90.754  1.00  0.00    -0.268 OA
ATOM     14  H   UNL     1     140.993 137.280  90.219  1.00  0.00     0.164 HD
BRANCH  12  15
ATOM     15  C   UNL     1     139.697 138.997  90.272  1.00  0.00     0.099 C 
ATOM     16  C   UNL     1     138.598 138.141  90.708  1.00  0.00     0.015 C 
ATOM     17  C   UNL     1     139.423 139.429  88.818  1.00  0.00     0.109 C 
ATOM     18  C   UNL     1     137.369 138.873  90.580  1.00  0.00     0.021 C 
ATOM     19  C   UNL     1     138.538 136.982  89.821  1.00  0.00     0.021 C 
ATOM     20  N   UNL     1     138.210 138.911  88.356  1.00  0.00    -0.301 NA
ATOM     21  C   UNL     1     137.174 139.325  89.163  1.00  0.00     0.085 C 
ATOM     22  C   UNL     1     138.266 137.495  88.355  1.00  0.00     0.085 C 
ENDBRANCH  12  15
ENDBRANCH   1  11
TORSDOF 2
ENDMDL
MODEL 5
REMARK VINA RESULT:    -6.616      3.308      7.843
REMARK INTER + INTRA:          -7.707
REMARK INTER:                  -7.396
REMARK INTRA:                  -0.311
REMARK UNBOUND:                -0.318
REMARK SMILES O=C(N[C@H]1CN2CCC1CC2)c1cc2cccc(Cl)c2s1
REMARK SMILES IDX 12 1 13 2 14 3 20 4 18 5 17 6 16 7 15 8 21 9 19 10 2 11 3 12
REMARK SMILES IDX 1 13 4 15 9 16 5 17 8 18 10 19 6 20 7 21 11 22
REMARK H PARENT 3 14
ROOT
ATOM      1  C   UNL     1     142.830 138.449  90.973  1.00  0.00     0.093 A 
ATOM      2  C   UNL     1     142.045 137.348  90.936  1.00  0.00     0.034 A 
ATOM      3  C   UNL     1     140.709 137.452  90.422  1.00  0.00    -0.005 A 
ATOM      4  C   UNL     1     140.368 138.781  89.991  1.00  0.00     0.054 A 
ATOM      5  C   UNL     1     139.119 139.031  89.474  1.00  0.00     0.058 A 
ATOM      6  C   UNL     1     138.188 137.993  89.370  1.00  0.00     0.022 A 
ATOM      7  C   UNL     1     138.525 136.695  89.793  1.00  0.00     0.002 A 
ATOM      8  C   UNL     1     139.792 136.439  90.318  1.00  0.00     0.010 A 
ATOM      9  S   UNL     1     141.871 139.748  90.323  1.00  0.00    -0.128 S 
ATOM     10  Cl  UNL     1     138.686 140.675  88.939  1.00  0.00    -0.083 Cl
ENDROOT
BRANCH   1  11
ATOM     11  C   UNL     1     144.272 138.504  91.492  1.00  0.00     0.261 C 
ATOM     12  N   UNL     1     145.145 137.353  91.367  1.00  0.00    -0.347 N 
ATOM     13  O   UNL     1     144.673 139.495  92.001  1.00  0.00    -0.268 OA
ATOM     14  H   UNL     1     144.818 136.525  90.948  1.00  0.00     0.164 HD
BRANCH  12  15
ATOM     15  C   UNL     1     146.533 137.434  91.877  1.00  0.00     0.099 C 
ATOM     16  C   UNL     1     147.441 137.808  90.797  1.00  0.00     0.015 C 
ATOM     17  C   UNL     1     146.973 136.060  92.421  1.00  0.00     0.109 C 
ATOM     18  C   UNL     1     148.781 137.832  91.314  1.00  0.00     0.021 C 
ATOM     19  C   UNL     1     147.366 136.785  89.758  1.00  0.00     0.021 C 
ATOM     20  N   UNL     1     148.110 135.593  91.758  1.00  0.00    -0.301 NA
ATOM     21  C   UNL     1     149.145 136.494  91.887  1.00  0.00     0.085 C 
ATOM     22  C   UNL     1     147.818 135.411  90.383  1.00  0.00     0.085 C 
ENDBRANCH  12  15
ENDBRANCH   1  11
TORSDOF 2
ENDMDL
MODEL 6
REMARK VINA RESULT:    -6.384      3.364      8.011
REMARK INTER + INTRA:          -7.448
REMARK INTER:                  -7.158
REMARK INTRA:                  -0.291
REMARK UNBOUND:                -0.318
REMARK SMILES O=C(N[C@H]1CN2CCC1CC2)c1cc2cccc(Cl)c2s1
REMARK SMILES IDX 12 1 13 2 14 3 20 4 18 5 17 6 16 7 15 8 21 9 19 10 2 11 3 12
REMARK SMILES IDX 1 13 4 15 9 16 5 17 8 18 10 19 6 20 7 21 11 22
REMARK H PARENT 3 14
ROOT
ATOM      1  C   UNL     1     142.882 138.523  90.683  1.00  0.00     0.093 A 
ATOM      2  C   UNL     1     141.941 139.433  90.340  1.00  0.00     0.034 A 
ATOM      3  C   UNL     1     140.575 139.016  90.197  1.00  0.00    -0.005 A 
ATOM      4  C   UNL     1     140.380 137.615  90.454  1.00  0.00     0.054 A 
ATOM      5  C   UNL     1     139.120 137.073  90.356  1.00  0.00     0.058 A 
ATOM      6  C   UNL     1     138.038 137.887  90.008  1.00  0.00     0.022 A 
ATOM      7  C   UNL     1     138.233 139.256  89.756  1.00  0.00     0.002 A 
ATOM      8  C   UNL     1     139.511 139.808  89.855  1.00  0.00     0.010 A 
ATOM      9  S   UNL     1     142.045 137.007  90.857  1.00  0.00    -0.128 S 
ATOM     10  Cl  UNL     1     138.867 135.337  90.672  1.00  0.00    -0.083 Cl
ENDROOT
BRANCH   1  11
ATOM     11  C   UNL     1     144.376 138.807  90.873  1.00  0.00     0.261 C 
ATOM     12  N   UNL     1     145.308 137.722  91.116  1.00  0.00    -0.347 N 
ATOM     13  O   UNL     1     144.772 139.922  90.823  1.00  0.00    -0.268 OA
ATOM     14  H   UNL     1     144.987 136.793  91.161  1.00  0.00     0.164 HD
BRANCH  12  15
ATOM     15  C   UNL     1     146.746 138.024  91.295  1.00  0.00     0.099 C 
ATOM     16  C   UNL     1     147.443 137.918  90.017  1.00  0.00     0.015 C 
ATOM     17  C   UNL     1     147.377 137.013  92.273  1.00  0.00     0.109 C 
ATOM     18  C   UNL     1     148.840 138.171  90.235  1.00  0.00     0.021 C 
ATOM     19  C   UNL     1     147.294 136.551  89.524  1.00  0.00     0.021 C 
ATOM     20  N   UNL     1     148.434 136.321  91.674  1.00  0.00    -0.301 NA
ATOM     21  C   UNL     1     149.397 137.204  91.237  1.00  0.00     0.085 C 
ATOM     22  C   UNL     1     147.950 135.574  90.572  1.00  0.00     0.085 C 
ENDBRANCH  12  15
ENDBRANCH   1  11
TORSDOF 2
ENDMDL
MODEL 7
REMARK VINA RESULT:    -6.320      3.922      7.786
REMARK INTER + INTRA:          -7.376
REMARK INTER:                  -7.149
REMARK INTRA:                  -0.228
REMARK UNBOUND:                -0.318
REMARK SMILES O=C(N[C@H]1CN2CCC1CC2)c1cc2cccc(Cl)c2s1
REMARK SMILES IDX 12 1 13 2 14 3 20 4 18 5 17 6 16 7 15 8 21 9 19 10 2 11 3 12
REMARK SMILES IDX 1 13 4 15 9 16 5 17 8 18 10 19 6 20 7 21 11 22
REMARK H PARENT 3 14
ROOT
ATOM      1  C   UNL     1     142.692 138.740  90.535  1.00  0.00     0.093 A 
ATOM      2  C   UNL     1     141.691 139.600  90.237  1.00  0.00     0.034 A 
ATOM      3  C   UNL     1     140.343 139.113  90.155  1.00  0.00    -0.005 A 
ATOM      4  C   UNL     1     140.232 137.703  90.417  1.00  0.00     0.054 A 
ATOM      5  C   UNL     1     138.999 137.097  90.375  1.00  0.00     0.058 A 
ATOM      6  C   UNL     1     137.861 137.854  90.077  1.00  0.00     0.022 A 
ATOM      7  C   UNL     1     137.974 139.231  89.821  1.00  0.00     0.002 A 
ATOM      8  C   UNL     1     139.225 139.848  89.863  1.00  0.00     0.010 A 
ATOM      9  S   UNL     1     141.943 137.182  90.743  1.00  0.00    -0.128 S 
ATOM     10  Cl  UNL     1     138.850 135.350  90.697  1.00  0.00    -0.083 Cl
ENDROOT
BRANCH   1  11
ATOM     11  C   UNL     1     144.176 139.100  90.657  1.00  0.00     0.261 C 
ATOM     12  N   UNL     1     144.823 139.914  89.647  1.00  0.00    -0.347 N 
ATOM     13  O   UNL     1     144.800 138.708  91.584  1.00  0.00    -0.268 OA
ATOM     14  H   UNL     1     144.313 140.242  88.872  1.00  0.00     0.164 HD
BRANCH  12  15
ATOM     15  C   UNL     1     146.259 140.248  89.789  1.00  0.00     0.099 C 
ATOM     16  C   UNL     1     146.577 141.435  89.002  1.00  0.00     0.015 C 
ATOM     17  C   UNL     1     147.123 139.081  89.272  1.00  0.00     0.109 C 
ATOM     18  C   UNL     1     147.983 141.703  89.126  1.00  0.00     0.021 C 
ATOM     19  C   UNL     1     146.284 141.149  87.600  1.00  0.00     0.021 C 
ATOM     20  N   UNL     1     147.968 139.496  88.238  1.00  0.00    -0.301 NA
ATOM     21  C   UNL     1     148.784 140.520  88.668  1.00  0.00     0.085 C 
ATOM     22  C   UNL     1     147.192 139.945  87.141  1.00  0.00     0.085 C 
ENDBRANCH  12  15
ENDBRANCH   1  11
TORSDOF 2
ENDMDL
MODEL 8
REMARK VINA RESULT:    -6.290      4.686      7.759
REMARK INTER + INTRA:          -7.343
REMARK INTER:                  -7.040
REMARK INTRA:                  -0.303
REMARK UNBOUND:                -0.318
REMARK SMILES O=C(N[C@H]1CN2CCC1CC2)c1cc2cccc(Cl)c2s1
REMARK SMILES IDX 12 1 13 2 14 3 20 4 18 5 17 6 16 7 15 8 21 9 19 10 2 11 3 12
REMARK SMILES IDX 1 13 4 15 9 16 5 17 8 18 10 19 6 20 7 21 11 22
REMARK H PARENT 3 14
ROOT
ATOM      1  C   UNL     1     144.031 140.735  93.116  1.00  0.00     0.093 A 
ATOM      2  C   UNL     1     142.945 141.145  92.420  1.00  0.00     0.034 A 
ATOM      3  C   UNL     1     141.900 141.859  93.097  1.00  0.00    -0.005 A 
ATOM      4  C   UNL     1     142.163 142.054  94.498  1.00  0.00     0.054 A 
ATOM      5  C   UNL     1     141.248 142.724  95.275  1.00  0.00     0.058 A 
ATOM      6  C   UNL     1     140.070 143.211  94.700  1.00  0.00     0.022 A 
ATOM      7  C   UNL     1     139.817 143.017  93.331  1.00  0.00     0.002 A 
ATOM      8  C   UNL     1     140.744 142.337  92.540  1.00  0.00     0.010 A 
ATOM      9  S   UNL     1     143.777 141.261  94.756  1.00  0.00    -0.128 S 
ATOM     10  Cl  UNL     1     141.562 142.971  97.012  1.00  0.00    -0.083 Cl
ENDROOT
BRANCH   1  11
ATOM     11  C   UNL     1     145.225 139.965  92.542  1.00  0.00     0.261 C 
ATOM     12  N   UNL     1     145.035 138.673  91.912  1.00  0.00    -0.347 N 
ATOM     13  O   UNL     1     146.312 140.428  92.618  1.00  0.00    -0.268 OA
ATOM     14  H   UNL     1     144.136 138.280  91.847  1.00  0.00     0.164 HD
BRANCH  12  15
ATOM     15  C   UNL     1     146.207 137.950  91.366  1.00  0.00     0.099 C 
ATOM     16  C   UNL     1     145.820 137.198  90.176  1.00  0.00     0.015 C 
ATOM     17  C   UNL     1     146.743 136.953  92.412  1.00  0.00     0.109 C 
ATOM     18  C   UNL     1     146.965 136.474  89.700  1.00  0.00     0.021 C 
ATOM     19  C   UNL     1     144.790 136.234  90.556  1.00  0.00     0.021 C 
ATOM     20  N   UNL     1     146.733 135.646  91.918  1.00  0.00    -0.301 NA
ATOM     21  C   UNL     1     147.490 135.562  90.770  1.00  0.00     0.085 C 
ATOM     22  C   UNL     1     145.402 135.256  91.630  1.00  0.00     0.085 C 
ENDBRANCH  12  15
ENDBRANCH   1  11
TORSDOF 2
ENDMDL
MODEL 9
REMARK VINA RESULT:    -6.266      3.450      7.992
REMARK INTER + INTRA:          -7.317
REMARK INTER:                  -7.109
REMARK INTRA:                  -0.208
REMARK UNBOUND:                -0.318
REMARK SMILES O=C(N[C@H]1CN2CCC1CC2)c1cc2cccc(Cl)c2s1
REMARK SMILES IDX 12 1 13 2 14 3 20 4 18 5 17 6 16 7 15 8 21 9 19 10 2 11 3 12
REMARK SMILES IDX 1 13 4 15 9 16 5 17 8 18 10 19 6 20 7 21 11 22
REMARK H PARENT 3 14
ROOT
ATOM      1  C   UNL     1     143.233 136.795  90.858  1.00  0.00     0.093 A 
ATOM      2  C   UNL     1     142.153 135.984  90.773  1.00  0.00     0.034 A 
ATOM      3  C   UNL     1     140.852 136.558  90.578  1.00  0.00    -0.005 A 
ATOM      4  C   UNL     1     140.872 137.993  90.491  1.00  0.00     0.054 A 
ATOM      5  C   UNL     1     139.697 138.681  90.304  1.00  0.00     0.058 A 
ATOM      6  C   UNL     1     138.491 137.981  90.198  1.00  0.00     0.022 A 
ATOM      7  C   UNL     1     138.475 136.579  90.284  1.00  0.00     0.002 A 
ATOM      8  C   UNL     1     139.667 135.879  90.475  1.00  0.00     0.010 A 
ATOM      9  S   UNL     1     142.629 138.419  90.682  1.00  0.00    -0.128 S 
ATOM     10  Cl  UNL     1     139.710 140.460  90.195  1.00  0.00    -0.083 Cl
ENDROOT
BRANCH   1  11
ATOM     11  C   UNL     1     144.682 136.341  91.066  1.00  0.00     0.261 C 
ATOM     12  N   UNL     1     145.754 136.912  90.275  1.00  0.00    -0.347 N 
ATOM     13  O   UNL     1     144.925 135.514  91.878  1.00  0.00    -0.268 OA
ATOM     14  H   UNL     1     145.560 137.598  89.596  1.00  0.00     0.164 HD
BRANCH  12  15
ATOM     15  C   UNL     1     147.145 136.455  90.496  1.00  0.00     0.099 C 
ATOM     16  C   UNL     1     147.722 137.147  91.645  1.00  0.00     0.015 C 
ATOM     17  C   UNL     1     148.007 136.776  89.259  1.00  0.00     0.109 C 
ATOM     18  C   UNL     1     149.083 136.715  91.803  1.00  0.00     0.021 C 
ATOM     19  C   UNL     1     147.723 138.581  91.366  1.00  0.00     0.021 C 
ATOM     20  N   UNL     1     149.088 137.596  89.594  1.00  0.00    -0.301 NA
ATOM     21  C   UNL     1     149.868 136.992  90.555  1.00  0.00     0.085 C 
ATOM     22  C   UNL     1     148.611 138.835  90.089  1.00  0.00     0.085 C 
ENDBRANCH  12  15
ENDBRANCH   1  11
TORSDOF 2
ENDMDL
MODEL 10
REMARK VINA RESULT:    -6.176      4.537      5.595
REMARK INTER + INTRA:          -7.216
REMARK INTER:                  -6.906
REMARK INTRA:                  -0.310
REMARK UNBOUND:                -0.318
REMARK SMILES O=C(N[C@H]1CN2CCC1CC2)c1cc2cccc(Cl)c2s1
REMARK SMILES IDX 12 1 13 2 14 3 20 4 18 5 17 6 16 7 15 8 21 9 19 10 2 11 3 12
REMARK SMILES IDX 1 13 4 15 9 16 5 17 8 18 10 19 6 20 7 21 11 22
REMARK H PARENT 3 14
ROOT
ATOM      1  C   UNL     1     144.170 139.896  92.848  1.00  0.00     0.093 A 
ATOM      2  C   UNL     1     143.444 138.889  92.311  1.00  0.00     0.034 A 
ATOM      3  C   UNL     1     144.100 137.670  91.932  1.00  0.00    -0.005 A 
ATOM      4  C   UNL     1     145.514 137.682  92.192  1.00  0.00     0.054 A 
ATOM      5  C   UNL     1     146.274 136.580  91.881  1.00  0.00     0.058 A 
ATOM      6  C   UNL     1     145.668 135.454  91.316  1.00  0.00     0.022 A 
ATOM      7  C   UNL     1     144.285 135.446  91.063  1.00  0.00     0.002 A 
ATOM      8  C   UNL     1     143.512 136.564  91.377  1.00  0.00     0.010 A 
ATOM      9  S   UNL     1     145.813 139.325  92.912  1.00  0.00    -0.128 S 
ATOM     10  Cl  UNL     1     148.028 136.585  92.198  1.00  0.00    -0.083 Cl
ENDROOT
BRANCH   1  11
ATOM     11  C   UNL     1     143.622 141.254  93.300  1.00  0.00     0.261 C 
ATOM     12  N   UNL     1     142.745 141.350  94.451  1.00  0.00    -0.347 N 
ATOM     13  O   UNL     1     143.915 142.233  92.701  1.00  0.00    -0.268 OA
ATOM     14  H   UNL     1     142.494 140.541  94.952  1.00  0.00     0.164 HD
BRANCH  12  15
ATOM     15  C   UNL     1     142.229 142.675  94.865  1.00  0.00     0.099 C 
ATOM     16  C   UNL     1     142.239 142.782  96.321  1.00  0.00     0.015 C 
ATOM     17  C   UNL     1     140.777 142.849  94.379  1.00  0.00     0.109 C 
ATOM     18  C   UNL     1     141.691 144.057  96.690  1.00  0.00     0.021 C 
ATOM     19  C   UNL     1     141.376 141.736  96.865  1.00  0.00     0.021 C 
ATOM     20  N   UNL     1     139.910 143.084  95.450  1.00  0.00    -0.301 NA
ATOM     21  C   UNL     1     140.301 144.207  96.146  1.00  0.00     0.085 C 
ATOM     22  C   UNL     1     139.915 141.968  96.322  1.00  0.00     0.085 C 
ENDBRANCH  12  15
ENDBRANCH   1  11
TORSDOF 2
ENDMDL
MODEL 11
REMARK VINA RESULT:    -6.093      4.646      5.194
REMARK INTER + INTRA:          -7.124
REMARK INTER:                  -6.896
REMARK INTRA:                  -0.227
REMARK UNBOUND:                -0.318
REMARK SMILES O=C(N[C@H]1CN2CCC1CC2)c1cc2cccc(Cl)c2s1
REMARK SMILES IDX 12 1 13 2 14 3 20 4 18 5 17 6 16 7 15 8 21 9 19 10 2 11 3 12
REMARK SMILES IDX 1 13 4 15 9 16 5 17 8 18 10 19 6 20 7 21 11 22
REMARK H PARENT 3 14
ROOT
ATOM      1  C   UNL     1     142.568 140.427  86.083  1.00  0.00     0.093 A 
ATOM      2  C   UNL     1     143.680 140.034  86.746  1.00  0.00     0.034 A 
ATOM      3  C   UNL     1     144.959 140.140  86.105  1.00  0.00    -0.005 A 
ATOM      4  C   UNL     1     144.884 140.681  84.774  1.00  0.00     0.054 A 
ATOM      5  C   UNL     1     146.033 140.842  84.038  1.00  0.00     0.058 A 
ATOM      6  C   UNL     1     147.267 140.479  84.586  1.00  0.00     0.022 A 
ATOM      7  C   UNL     1     147.337 139.950  85.886  1.00  0.00     0.002 A 
ATOM      8  C   UNL     1     146.171 139.786  86.635  1.00  0.00     0.010 A 
ATOM      9  S   UNL     1     143.109 140.987  84.526  1.00  0.00    -0.128 S 
ATOM     10  Cl  UNL     1     145.951 141.511  82.387  1.00  0.00    -0.083 Cl
ENDROOT
BRANCH   1  11
ATOM     11  C   UNL     1     141.135 140.376  86.625  1.00  0.00     0.261 C 
ATOM     12  N   UNL     1     140.869 139.869  87.958  1.00  0.00    -0.347 N 
ATOM     13  O   UNL     1     140.239 140.751  85.948  1.00  0.00    -0.268 OA
ATOM     14  H   UNL     1     141.608 139.553  88.525  1.00  0.00     0.164 HD
BRANCH  12  15
ATOM     15  C   UNL     1     139.475 139.830  88.457  1.00  0.00     0.099 C 
ATOM     16  C   UNL     1     139.468 139.777  89.916  1.00  0.00     0.015 C 
ATOM     17  C   UNL     1     138.762 138.571  87.926  1.00  0.00     0.109 C 
ATOM     18  C   UNL     1     138.106 139.694  90.364  1.00  0.00     0.021 C 
ATOM     19  C   UNL     1     140.166 138.564  90.335  1.00  0.00     0.021 C 
ATOM     20  N   UNL     1     138.296 137.773  88.974  1.00  0.00    -0.301 NA
ATOM     21  C   UNL     1     137.434 138.489  89.775  1.00  0.00     0.085 C 
ATOM     22  C   UNL     1     139.391 137.322  89.751  1.00  0.00     0.085 C 
ENDBRANCH  12  15
ENDBRANCH   1  11
TORSDOF 2
ENDMDL
MODEL 12
REMARK VINA RESULT:    -6.020      5.252      6.593
REMARK INTER + INTRA:          -7.041
REMARK INTER:                  -6.727
REMARK INTRA:                  -0.314
REMARK UNBOUND:                -0.318
REMARK SMILES O=C(N[C@H]1CN2CCC1CC2)c1cc2cccc(Cl)c2s1
REMARK SMILES IDX 12 1 13 2 14 3 20 4 18 5 17 6 16 7 15 8 21 9 19 10 2 11 3 12
REMARK SMILES IDX 1 13 4 15 9 16 5 17 8 18 10 19 6 20 7 21 11 22
REMARK H PARENT 3 14
ROOT
ATOM      1  C   UNL     1     144.705 141.191  92.559  1.00  0.00     0.093 A 
ATOM      2  C   UNL     1     144.030 140.543  91.581  1.00  0.00     0.034 A 
ATOM      3  C   UNL     1     144.565 140.522  90.249  1.00  0.00    -0.005 A 
ATOM      4  C   UNL     1     145.813 141.226  90.127  1.00  0.00     0.054 A 
ATOM      5  C   UNL     1     146.444 141.289  88.908  1.00  0.00     0.058 A 
ATOM      6  C   UNL     1     145.870 140.667  87.795  1.00  0.00     0.022 A 
ATOM      7  C   UNL     1     144.650 139.980  87.918  1.00  0.00     0.002 A 
ATOM      8  C   UNL     1     144.007 139.916  89.155  1.00  0.00     0.010 A 
ATOM      9  S   UNL     1     146.133 141.843  91.807  1.00  0.00    -0.128 S 
ATOM     10  Cl  UNL     1     147.991 142.160  88.745  1.00  0.00    -0.083 Cl
ENDROOT
BRANCH   1  11
ATOM     11  C   UNL     1     144.269 141.308  94.023  1.00  0.00     0.261 C 
ATOM     12  N   UNL     1     143.014 141.947  94.371  1.00  0.00    -0.347 N 
ATOM     13  O   UNL     1     144.964 140.874  94.878  1.00  0.00    -0.268 OA
ATOM     14  H   UNL     1     142.432 142.312  93.667  1.00  0.00     0.164 HD
BRANCH  12  15
ATOM     15  C   UNL     1     142.617 142.046  95.794  1.00  0.00     0.099 C 
ATOM     16  C   UNL     1     141.185 141.798  95.931  1.00  0.00     0.015 C 
ATOM     17  C   UNL     1     142.914 143.462  96.325  1.00  0.00     0.109 C 
ATOM     18  C   UNL     1     140.825 141.947  97.314  1.00  0.00     0.021 C 
ATOM     19  C   UNL     1     140.467 142.808  95.158  1.00  0.00     0.021 C 
ATOM     20  N   UNL     1     141.754 144.077  96.803  1.00  0.00    -0.301 NA
ATOM     21  C   UNL     1     141.187 143.318  97.804  1.00  0.00     0.085 C 
ATOM     22  C   UNL     1     140.823 144.226  95.746  1.00  0.00     0.085 C 
ENDBRANCH  12  15
ENDBRANCH   1  11
TORSDOF 2
ENDMDL
MODEL 13
REMARK VINA RESULT:    -5.962      3.824      7.812
REMARK INTER + INTRA:          -6.976
REMARK INTER:                  -6.675
REMARK INTRA:                  -0.301
REMARK UNBOUND:                -0.318
REMARK SMILES O=C(N[C@H]1CN2CCC1CC2)c1cc2cccc(Cl)c2s1
REMARK SMILES IDX 12 1 13 2 14 3 20 4 18 5 17 6 16 7 15 8 21 9 19 10 2 11 3 12
REMARK SMILES IDX 1 13 4 15 9 16 5 17 8 18 10 19 6 20 7 21 11 22
REMARK H PARENT 3 14
ROOT
ATOM      1  C   UNL     1     142.994 138.376  90.746  1.00  0.00     0.093 A 
ATOM      2  C   UNL     1     142.222 137.265  90.721  1.00  0.00     0.034 A 
ATOM      3  C   UNL     1     140.814 137.390  90.471  1.00  0.00    -0.005 A 
ATOM      4  C   UNL     1     140.392 138.749  90.267  1.00  0.00     0.054 A 
ATOM      5  C   UNL     1     139.069 139.022  90.015  1.00  0.00     0.058 A 
ATOM      6  C   UNL     1     138.142 137.976  89.959  1.00  0.00     0.022 A 
ATOM      7  C   UNL     1     138.558 136.649  90.160  1.00  0.00     0.002 A 
ATOM      8  C   UNL     1     139.901 136.370  90.416  1.00  0.00     0.010 A 
ATOM      9  S   UNL     1     141.925 139.713  90.434  1.00  0.00    -0.128 S 
ATOM     10  Cl  UNL     1     138.535 140.704  89.761  1.00  0.00    -0.083 Cl
ENDROOT
BRANCH   1  11
ATOM     11  C   UNL     1     144.505 138.411  91.000  1.00  0.00     0.261 C 
ATOM     12  N   UNL     1     145.263 139.626  90.771  1.00  0.00    -0.347 N 
ATOM     13  O   UNL     1     145.058 137.437  91.385  1.00  0.00    -0.268 OA
ATOM     14  H   UNL     1     144.812 140.439  90.449  1.00  0.00     0.164 HD
BRANCH  12  15
ATOM     15  C   UNL     1     146.722 139.633  91.025  1.00  0.00     0.099 C 
ATOM     16  C   UNL     1     147.119 140.901  91.629  1.00  0.00     0.015 C 
ATOM     17  C   UNL     1     147.487 139.473  89.696  1.00  0.00     0.109 C 
ATOM     18  C   UNL     1     148.542 140.892  91.819  1.00  0.00     0.021 C 
ATOM     19  C   UNL     1     146.784 141.978  90.701  1.00  0.00     0.021 C 
ATOM     20  N   UNL     1     148.345 140.553  89.473  1.00  0.00    -0.301 NA
ATOM     21  C   UNL     1     149.243 140.674  90.511  1.00  0.00     0.085 C 
ATOM     22  C   UNL     1     147.591 141.747  89.366  1.00  0.00     0.085 C 
ENDBRANCH  12  15
ENDBRANCH   1  11
TORSDOF 2
ENDMDL
MODEL 14
REMARK VINA RESULT:    -5.953      6.039      8.409
REMARK INTER + INTRA:          -6.967
REMARK INTER:                  -6.826
REMARK INTRA:                  -0.141
REMARK UNBOUND:                -0.318
REMARK SMILES O=C(N[C@H]1CN2CCC1CC2)c1cc2cccc(Cl)c2s1
REMARK SMILES IDX 12 1 13 2 14 3 20 4 18 5 17 6 16 7 15 8 21 9 19 10 2 11 3 12
REMARK SMILES IDX 1 13 4 15 9 16 5 17 8 18 10 19 6 20 7 21 11 22
REMARK H PARENT 3 14
ROOT
ATOM      1  C   UNL     1     138.665 141.982  89.021  1.00  0.00     0.093 A 
ATOM      2  C   UNL     1     138.030 143.169  88.883  1.00  0.00     0.034 A 
ATOM      3  C   UNL     1     137.938 144.056  90.008  1.00  0.00    -0.005 A 
ATOM      4  C   UNL     1     138.569 143.537  91.192  1.00  0.00     0.054 A 
ATOM      5  C   UNL     1     138.560 144.279  92.349  1.00  0.00     0.058 A 
ATOM      6  C   UNL     1     137.940 145.532  92.368  1.00  0.00     0.022 A 
ATOM      7  C   UNL     1     137.324 146.035  91.209  1.00  0.00     0.002 A 
ATOM      8  C   UNL     1     137.332 145.283  90.034  1.00  0.00     0.010 A 
ATOM      9  S   UNL     1     139.214 141.919  90.672  1.00  0.00    -0.128 S 
ATOM     10  Cl  UNL     1     139.338 143.645  93.823  1.00  0.00    -0.083 Cl
ENDROOT
BRANCH   1  11
ATOM     11  C   UNL     1     138.846 140.929  87.922  1.00  0.00     0.261 C 
ATOM     12  N   UNL     1     139.424 141.291  86.642  1.00  0.00    -0.347 N 
ATOM     13  O   UNL     1     138.508 139.812  88.121  1.00  0.00    -0.268 OA
ATOM     14  H   UNL     1     139.705 142.218  86.469  1.00  0.00     0.164 HD
BRANCH  12  15
ATOM     15  C   UNL     1     139.587 140.254  85.598  1.00  0.00     0.099 C 
ATOM     16  C   UNL     1     140.706 139.378  85.934  1.00  0.00     0.015 C 
ATOM     17  C   UNL     1     139.887 140.919  84.240  1.00  0.00     0.109 C 
ATOM     18  C   UNL     1     140.865 138.415  84.880  1.00  0.00     0.021 C 
ATOM     19  C   UNL     1     141.919 140.189  86.004  1.00  0.00     0.021 C 
ATOM     20  N   UNL     1     141.105 140.477  83.717  1.00  0.00    -0.301 NA
ATOM     21  C   UNL     1     141.094 139.107  83.569  1.00  0.00     0.085 C 
ATOM     22  C   UNL     1     142.159 140.844  84.590  1.00  0.00     0.085 C 
ENDBRANCH  12  15
ENDBRANCH   1  11
TORSDOF 2
ENDMDL
MODEL 15
REMARK VINA RESULT:    -5.951      5.182      8.126
REMARK INTER + INTRA:          -6.965
REMARK INTER:                  -6.647
REMARK INTRA:                  -0.318
REMARK UNBOUND:                -0.318
REMARK SMILES O=C(N[C@H]1CN2CCC1CC2)c1cc2cccc(Cl)c2s1
REMARK SMILES IDX 12 1 13 2 14 3 20 4 18 5 17 6 16 7 15 8 21 9 19 10 2 11 3 12
REMARK SMILES IDX 1 13 4 15 9 16 5 17 8 18 10 19 6 20 7 21 11 22
REMARK H PARENT 3 14
ROOT
ATOM      1  C   UNL     1     146.809 138.466  90.813  1.00  0.00     0.093 A 
ATOM      2  C   UNL     1     147.221 137.263  91.276  1.00  0.00     0.034 A 
ATOM      3  C   UNL     1     146.259 136.219  91.481  1.00  0.00    -0.005 A 
ATOM      4  C   UNL     1     144.916 136.611  91.146  1.00  0.00     0.054 A 
ATOM      5  C   UNL     1     143.887 135.711  91.292  1.00  0.00     0.058 A 
ATOM      6  C   UNL     1     144.152 134.421  91.762  1.00  0.00     0.022 A 
ATOM      7  C   UNL     1     145.465 134.042  92.088  1.00  0.00     0.002 A 
ATOM      8  C   UNL     1     146.511 134.954  91.942  1.00  0.00     0.010 A 
ATOM      9  S   UNL     1     145.087 138.335  90.597  1.00  0.00    -0.128 S 
ATOM     10  Cl  UNL     1     142.219 136.186  90.881  1.00  0.00    -0.083 Cl
ENDROOT
BRANCH   1  11
ATOM     11  C   UNL     1     147.707 139.679  90.545  1.00  0.00     0.261 C 
ATOM     12  N   UNL     1     148.308 139.878  89.241  1.00  0.00    -0.347 N 
ATOM     13  O   UNL     1     147.914 140.458  91.413  1.00  0.00    -0.268 OA
ATOM     14  H   UNL     1     148.143 139.233  88.515  1.00  0.00     0.164 HD
BRANCH  12  15
ATOM     15  C   UNL     1     149.172 141.058  89.009  1.00  0.00     0.099 C 
ATOM     16  C   UNL     1     148.547 141.953  88.040  1.00  0.00     0.015 C 
ATOM     17  C   UNL     1     150.533 140.609  88.441  1.00  0.00     0.109 C 
ATOM     18  C   UNL     1     149.429 143.060  87.804  1.00  0.00     0.021 C 
ATOM     19  C   UNL     1     148.376 141.224  86.785  1.00  0.00     0.021 C 
ATOM     20  N   UNL     1     150.784 141.201  87.200  1.00  0.00    -0.301 NA
ATOM     21  C   UNL     1     150.760 142.574  87.310  1.00  0.00     0.085 C 
ATOM     22  C   UNL     1     149.800 140.789  86.268  1.00  0.00     0.085 C 
ENDBRANCH  12  15
ENDBRANCH   1  11
TORSDOF 2
ENDMDL
MODEL 16
REMARK VINA RESULT:    -5.866      1.528      2.129
REMARK INTER + INTRA:          -6.869
REMARK INTER:                  -6.600
REMARK INTRA:                  -0.269
REMARK UNBOUND:                -0.318
REMARK SMILES O=C(N[C@H]1CN2CCC1CC2)c1cc2cccc(Cl)c2s1
REMARK SMILES IDX 12 1 13 2 14 3 20 4 18 5 17 6 16 7 15 8 21 9 19 10 2 11 3 12
REMARK SMILES IDX 1 13 4 15 9 16 5 17 8 18 10 19 6 20 7 21 11 22
REMARK H PARENT 3 14
ROOT
ATOM      1  C   UNL     1     143.612 138.371  90.780  1.00  0.00     0.093 A 
ATOM      2  C   UNL     1     144.637 137.488  90.750  1.00  0.00     0.034 A 
ATOM      3  C   UNL     1     145.985 137.968  90.863  1.00  0.00    -0.005 A 
ATOM      4  C   UNL     1     146.069 139.397  91.004  1.00  0.00     0.054 A 
ATOM      5  C   UNL     1     147.299 139.999  91.124  1.00  0.00     0.058 A 
ATOM      6  C   UNL     1     148.459 139.219  91.109  1.00  0.00     0.022 A 
ATOM      7  C   UNL     1     148.373 137.823  90.971  1.00  0.00     0.002 A 
ATOM      8  C   UNL     1     147.126 137.210  90.848  1.00  0.00     0.010 A 
ATOM      9  S   UNL     1     144.335 139.943  90.967  1.00  0.00    -0.128 S 
ATOM     10  Cl  UNL     1     147.414 141.769  91.298  1.00  0.00    -0.083 Cl
ENDROOT
BRANCH   1  11
ATOM     11  C   UNL     1     142.124 138.020  90.670  1.00  0.00     0.261 C 
ATOM     12  N   UNL     1     141.150 139.037  90.324  1.00  0.00    -0.347 N 
ATOM     13  O   UNL     1     141.767 136.909  90.872  1.00  0.00    -0.268 OA
ATOM     14  H   UNL     1     141.438 139.963  90.157  1.00  0.00     0.164 HD
BRANCH  12  15
ATOM     15  C   UNL     1     139.719 138.672  90.225  1.00  0.00     0.099 C 
ATOM     16  C   UNL     1     139.407 138.239  88.866  1.00  0.00     0.015 C 
ATOM     17  C   UNL     1     138.840 139.894  90.555  1.00  0.00     0.109 C 
ATOM     18  C   UNL     1     138.004 137.937  88.792  1.00  0.00     0.021 C 
ATOM     19  C   UNL     1     139.687 139.347  87.955  1.00  0.00     0.021 C 
ATOM     20  N   UNL     1     137.993 140.211  89.490  1.00  0.00    -0.301 NA
ATOM     21  C   UNL     1     137.189 139.135  89.180  1.00  0.00     0.085 C 
ATOM     22  C   UNL     1     138.765 140.561  88.355  1.00  0.00     0.085 C 
ENDBRANCH  12  15
ENDBRANCH   1  11
TORSDOF 2
ENDMDL
MODEL 17
REMARK VINA RESULT:    -5.856      5.060      6.024
REMARK INTER + INTRA:          -6.859
REMARK INTER:                  -6.524
REMARK INTRA:                  -0.335
REMARK UNBOUND:                -0.318
REMARK SMILES O=C(N[C@H]1CN2CCC1CC2)c1cc2cccc(Cl)c2s1
REMARK SMILES IDX 12 1 13 2 14 3 20 4 18 5 17 6 16 7 15 8 21 9 19 10 2 11 3 12
REMARK SMILES IDX 1 13 4 15 9 16 5 17 8 18 10 19 6 20 7 21 11 22
REMARK H PARENT 3 14
ROOT
ATOM      1  C   UNL     1     144.220 140.581  93.331  1.00  0.00     0.093 A 
ATOM      2  C   UNL     1     143.839 139.282  93.359  1.00  0.00     0.034 A 
ATOM      3  C   UNL     1     144.276 138.396  92.318  1.00  0.00    -0.005 A 
ATOM      4  C   UNL     1     145.106 139.040  91.336  1.00  0.00     0.054 A 
ATOM      5  C   UNL     1     145.599 138.313  90.279  1.00  0.00     0.058 A 
ATOM      6  C   UNL     1     145.293 136.954  90.166  1.00  0.00     0.022 A 
ATOM      7  C   UNL     1     144.481 136.328  91.128  1.00  0.00     0.002 A 
ATOM      8  C   UNL     1     143.979 137.064  92.201  1.00  0.00     0.010 A 
ATOM      9  S   UNL     1     145.209 140.762  91.911  1.00  0.00    -0.128 S 
ATOM     10  Cl  UNL     1     146.628 139.102  89.055  1.00  0.00    -0.083 Cl
ENDROOT
BRANCH   1  11
ATOM     11  C   UNL     1     143.838 141.649  94.362  1.00  0.00     0.261 C 
ATOM     12  N   UNL     1     142.445 141.941  94.640  1.00  0.00    -0.347 N 
ATOM     13  O   UNL     1     144.689 142.242  94.933  1.00  0.00    -0.268 OA
ATOM     14  H   UNL     1     141.732 141.454  94.167  1.00  0.00     0.164 HD
BRANCH  12  15
ATOM     15  C   UNL     1     142.104 142.979  95.640  1.00  0.00     0.099 C 
ATOM     16  C   UNL     1     141.801 142.354  96.924  1.00  0.00     0.015 C 
ATOM     17  C   UNL     1     140.859 143.763  95.180  1.00  0.00     0.109 C 
ATOM     18  C   UNL     1     141.430 143.382  97.856  1.00  0.00     0.021 C 
ATOM     19  C   UNL     1     140.658 141.463  96.743  1.00  0.00     0.021 C 
ATOM     20  N   UNL     1     139.830 143.677  96.121  1.00  0.00    -0.301 NA
ATOM     21  C   UNL     1     140.254 144.158  97.340  1.00  0.00     0.085 C 
ATOM     22  C   UNL     1     139.429 142.326  96.265  1.00  0.00     0.085 C 
ENDBRANCH  12  15
ENDBRANCH   1  11
TORSDOF 2
ENDMDL
MODEL 18
REMARK VINA RESULT:    -5.734      5.384      9.091
REMARK INTER + INTRA:          -6.723
REMARK INTER:                  -6.376
REMARK INTRA:                  -0.346
REMARK UNBOUND:                -0.318
REMARK SMILES O=C(N[C@H]1CN2CCC1CC2)c1cc2cccc(Cl)c2s1
REMARK SMILES IDX 12 1 13 2 14 3 20 4 18 5 17 6 16 7 15 8 21 9 19 10 2 11 3 12
REMARK SMILES IDX 1 13 4 15 9 16 5 17 8 18 10 19 6 20 7 21 11 22
REMARK H PARENT 3 14
ROOT
ATOM      1  C   UNL     1     146.942 138.706  91.247  1.00  0.00     0.093 A 
ATOM      2  C   UNL     1     147.372 137.478  91.618  1.00  0.00     0.034 A 
ATOM      3  C   UNL     1     146.433 136.397  91.702  1.00  0.00    -0.005 A 
ATOM      4  C   UNL     1     145.090 136.783  91.361  1.00  0.00     0.054 A 
ATOM      5  C   UNL     1     144.082 135.849  91.396  1.00  0.00     0.058 A 
ATOM      6  C   UNL     1     144.368 134.530  91.762  1.00  0.00     0.022 A 
ATOM      7  C   UNL     1     145.681 134.157  92.096  1.00  0.00     0.002 A 
ATOM      8  C   UNL     1     146.706 135.103  92.061  1.00  0.00     0.010 A 
ATOM      9  S   UNL     1     145.231 138.552  90.967  1.00  0.00    -0.128 S 
ATOM     10  Cl  UNL     1     142.414 136.318  90.976  1.00  0.00    -0.083 Cl
ENDROOT
BRANCH   1  11
ATOM     11  C   UNL     1     147.814 139.959  91.112  1.00  0.00     0.261 C 
ATOM     12  N   UNL     1     148.858 140.239  92.079  1.00  0.00    -0.347 N 
ATOM     13  O   UNL     1     147.631 140.706  90.211  1.00  0.00    -0.268 OA
ATOM     14  H   UNL     1     149.014 139.625  92.832  1.00  0.00     0.164 HD
BRANCH  12  15
ATOM     15  C   UNL     1     149.686 141.457  91.925  1.00  0.00     0.099 C 
ATOM     16  C   UNL     1     150.990 141.107  91.370  1.00  0.00     0.015 C 
ATOM     17  C   UNL     1     149.909 142.118  93.300  1.00  0.00     0.109 C 
ATOM     18  C   UNL     1     151.783 142.301  91.278  1.00  0.00     0.021 C 
ATOM     19  C   UNL     1     151.650 140.187  92.293  1.00  0.00     0.021 C 
ATOM     20  N   UNL     1     151.270 142.217  93.599  1.00  0.00    -0.301 NA
ATOM     21  C   UNL     1     151.923 142.943  92.626  1.00  0.00     0.085 C 
ATOM     22  C   UNL     1     151.837 140.921  93.675  1.00  0.00     0.085 C 
ENDBRANCH  12  15
ENDBRANCH   1  11
TORSDOF 2
ENDMDL
MODEL 19
REMARK VINA RESULT:    -5.692      4.928      9.720
REMARK INTER + INTRA:          -6.676
REMARK INTER:                  -6.401
REMARK INTRA:                  -0.275
REMARK UNBOUND:                -0.318
REMARK SMILES O=C(N[C@H]1CN2CCC1CC2)c1cc2cccc(Cl)c2s1
REMARK SMILES IDX 12 1 13 2 14 3 20 4 18 5 17 6 16 7 15 8 21 9 19 10 2 11 3 12
REMARK SMILES IDX 1 13 4 15 9 16 5 17 8 18 10 19 6 20 7 21 11 22
REMARK H PARENT 3 14
ROOT
ATOM      1  C   UNL     1     146.795 137.019  91.868  1.00  0.00     0.093 A 
ATOM      2  C   UNL     1     146.572 138.353  91.816  1.00  0.00     0.034 A 
ATOM      3  C   UNL     1     145.256 138.837  91.512  1.00  0.00    -0.005 A 
ATOM      4  C   UNL     1     144.300 137.785  91.294  1.00  0.00     0.054 A 
ATOM      5  C   UNL     1     142.996 138.100  90.994  1.00  0.00     0.058 A 
ATOM      6  C   UNL     1     142.607 139.440  90.903  1.00  0.00     0.022 A 
ATOM      7  C   UNL     1     143.544 140.465  91.116  1.00  0.00     0.002 A 
ATOM      8  C   UNL     1     144.868 140.148  91.421  1.00  0.00     0.010 A 
ATOM      9  S   UNL     1     145.267 136.262  91.517  1.00  0.00    -0.128 S 
ATOM     10  Cl  UNL     1     141.804 136.803  90.720  1.00  0.00    -0.083 Cl
ENDROOT
BRANCH   1  11
ATOM     11  C   UNL     1     148.137 136.346  92.176  1.00  0.00     0.261 C 
ATOM     12  N   UNL     1     149.385 137.040  91.927  1.00  0.00    -0.347 N 
ATOM     13  O   UNL     1     148.153 135.247  92.618  1.00  0.00    -0.268 OA
ATOM     14  H   UNL     1     149.380 137.952  91.557  1.00  0.00     0.164 HD
BRANCH  12  15
ATOM     15  C   UNL     1     150.667 136.367  92.234  1.00  0.00     0.099 C 
ATOM     16  C   UNL     1     151.692 137.359  92.543  1.00  0.00     0.015 C 
ATOM     17  C   UNL     1     151.138 135.553  91.012  1.00  0.00     0.109 C 
ATOM     18  C   UNL     1     152.931 136.676  92.789  1.00  0.00     0.021 C 
ATOM     19  C   UNL     1     151.865 138.220  91.376  1.00  0.00     0.021 C 
ATOM     20  N   UNL     1     152.399 135.972  90.580  1.00  0.00    -0.301 NA
ATOM     21  C   UNL     1     153.319 135.850  91.599  1.00  0.00     0.085 C 
ATOM     22  C   UNL     1     152.336 137.325  90.167  1.00  0.00     0.085 C 
ENDBRANCH  12  15
ENDBRANCH   1  11
TORSDOF 2
ENDMDL
MODEL 20
REMARK VINA RESULT:    -5.645      4.938      9.628
REMARK INTER + INTRA:          -6.623
REMARK INTER:                  -6.311
REMARK INTRA:                  -0.312
REMARK UNBOUND:                -0.318
REMARK SMILES O=C(N[C@H]1CN2CCC1CC2)c1cc2cccc(Cl)c2s1
REMARK SMILES IDX 12 1 13 2 14 3 20 4 18 5 17 6 16 7 15 8 21 9 19 10 2 11 3 12
REMARK SMILES IDX 1 13 4 15 9 16 5 17 8 18 10 19 6 20 7 21 11 22
REMARK H PARENT 3 14
ROOT
ATOM      1  C   UNL     1     147.301 136.627  91.652  1.00  0.00     0.093 A 
ATOM      2  C   UNL     1     146.407 135.618  91.533  1.00  0.00     0.034 A 
ATOM      3  C   UNL     1     145.017 135.926  91.349  1.00  0.00    -0.005 A 
ATOM      4  C   UNL     1     144.748 137.338  91.312  1.00  0.00     0.054 A 
ATOM      5  C   UNL     1     143.459 137.782  91.140  1.00  0.00     0.058 A 
ATOM      6  C   UNL     1     142.417 136.859  91.003  1.00  0.00     0.022 A 
ATOM      7  C   UNL     1     142.684 135.480  91.041  1.00  0.00     0.002 A 
ATOM      8  C   UNL     1     143.992 135.027  91.215  1.00  0.00     0.010 A 
ATOM      9  S   UNL     1     146.384 138.101  91.528  1.00  0.00    -0.128 S 
ATOM     10  Cl  UNL     1     143.114 139.531  91.093  1.00  0.00    -0.083 Cl
ENDROOT
BRANCH   1  11
ATOM     11  C   UNL     1     148.812 136.466  91.853  1.00  0.00     0.261 C 
ATOM     12  N   UNL     1     149.743 137.369  91.206  1.00  0.00    -0.347 N 
ATOM     13  O   UNL     1     149.221 135.593  92.542  1.00  0.00    -0.268 OA
ATOM     14  H   UNL     1     149.411 138.095  90.630  1.00  0.00     0.164 HD
BRANCH  12  15
ATOM     15  C   UNL     1     151.197 137.191  91.418  1.00  0.00     0.099 C 
ATOM     16  C   UNL     1     151.706 138.236  92.301  1.00  0.00     0.015 C 
ATOM     17  C   UNL     1     151.941 137.295  90.071  1.00  0.00     0.109 C 
ATOM     18  C   UNL     1     153.124 138.061  92.448  1.00  0.00     0.021 C 
ATOM     19  C   UNL     1     151.464 139.530  91.668  1.00  0.00     0.021 C 
ATOM     20  N   UNL     1     152.890 138.320  90.095  1.00  0.00    -0.301 NA
ATOM     21  C   UNL     1     153.799 138.109  91.109  1.00  0.00     0.085 C 
ATOM     22  C   UNL     1     152.243 139.563  90.298  1.00  0.00     0.085 C 
ENDBRANCH  12  15
ENDBRANCH   1  11
TORSDOF 2
ENDMDL
