MODEL 1
REMARK VINA RESULT:    -8.825      0.000      0.000
REMARK INTER + INTRA:         -14.400
REMARK INTER:                 -13.210
REMARK INTRA:                  -1.190
REMARK UNBOUND:                -1.190
REMARK SMILES C[C@H]1N[C@@H](N[C@@H](O)N2CCC[C@H]2[C@@H](N)O)S[C@@H]1[C@H]1CCN[C@H](C(C)(C)C(F)(F)F)C1
REMARK SMILES IDX 5 1 4 3 2 4 17 5 3 6 16 7 1 8 18 10 19 11 30 12 20 13 22 14
REMARK SMILES IDX 21 15 23 17 24 18 25 19 26 20 27 21 28 22 29 23 6 24 7 25
REMARK SMILES IDX 8 27 12 28 9 29 11 30 10 31 13 32 15 33 14 35
REMARK H PARENT 5 2 3 9 21 16 7 26 15 34 14 36 14 37
ROOT
ATOM      1  N   UNL     1      -0.051 -10.168  13.734  1.00  0.00    -0.255 NA
ATOM      2  H   UNL     1       0.078 -11.021  13.172  1.00  0.00     0.129 HD
ENDROOT
BRANCH   1   3
ATOM      3  C   UNL     1      -1.015 -10.484  14.673  1.00  0.00     0.185 C 
ATOM      4  C   UNL     1      -2.906 -11.358  15.417  1.00  0.00     0.066 C 
ATOM      5  C   UNL     1      -2.433 -10.864  16.629  1.00  0.00     0.069 C 
ATOM      6  N   UNL     1      -2.091 -11.142  14.324  1.00  0.00    -0.290 NA
ATOM      7  S   UNL     1      -0.906 -10.063  16.345  1.00  0.00    -0.122 SA
ATOM      8  C   UNL     1      -4.184 -12.106  15.214  1.00  0.00     0.025 C 
ATOM      9  H   UNL     1      -1.817 -12.049  13.922  1.00  0.00     0.125 HD
BRANCH   5  10
ATOM     10  C   UNL     1      -2.943 -10.859  18.018  1.00  0.00     0.006 C 
ATOM     11  C   UNL     1      -4.088 -11.565  18.372  1.00  0.00     0.020 C 
ATOM     12  C   UNL     1      -2.255 -10.159  19.004  1.00  0.00     0.024 C 
ATOM     13  C   UNL     1      -4.523 -11.505  19.677  1.00  0.00     0.081 C 
ATOM     14  C   UNL     1      -2.766 -10.174  20.310  1.00  0.00     0.068 C 
ATOM     15  N   UNL     1      -3.893 -10.820  20.642  1.00  0.00    -0.313 NA
ATOM     16  H   UNL     1      -4.555 -10.118  21.004  1.00  0.00     0.122 HD
BRANCH  14  17
ATOM     17  C   UNL     1      -2.018  -9.475  21.471  1.00  0.00     0.076 C 
ATOM     18  C   UNL     1      -1.408  -8.139  21.015  1.00  0.00     0.022 C 
ATOM     19  C   UNL     1      -2.976  -9.231  22.650  1.00  0.00     0.022 C 
BRANCH  17  20
ATOM     20  C   UNL     1      -0.792 -10.416  21.996  1.00  0.00     0.395 C 
ATOM     21  F   UNL     1       0.374  -9.964  21.536  1.00  0.00    -0.170 F 
ATOM     22  F   UNL     1      -0.698 -10.454  23.320  1.00  0.00    -0.170 F 
ATOM     23  F   UNL     1      -0.923 -11.674  21.591  1.00  0.00    -0.170 F 
ENDBRANCH  17  20
ENDBRANCH  14  17
ENDBRANCH   5  10
ENDBRANCH   1   3
BRANCH   1  24
ATOM     24  C   UNL     1      -0.159  -9.118  12.810  1.00  0.00     0.261 C 
BRANCH  24  25
ATOM     25  O   UNL     1      -1.208  -8.879  12.229  1.00  0.00    -0.365 OA
ATOM     26  H   UNL     1      -1.049  -8.195  11.531  1.00  0.00     0.214 HD
ENDBRANCH  24  25
BRANCH  24  27
ATOM     27  N   UNL     1       0.971  -8.358  12.577  1.00  0.00    -0.259 NA
ATOM     28  C   UNL     1       1.353  -7.300  13.527  1.00  0.00     0.104 C 
ATOM     29  C   UNL     1       1.910  -8.469  11.450  1.00  0.00     0.089 C 
ATOM     30  C   UNL     1       2.688  -6.778  12.974  1.00  0.00     0.025 C 
ATOM     31  C   UNL     1       2.697  -7.178  11.517  1.00  0.00     0.017 C 
BRANCH  28  32
ATOM     32  C   UNL     1       0.309  -6.190  13.660  1.00  0.00     0.197 C 
BRANCH  32  33
ATOM     33  O   UNL     1      -0.368  -5.853  12.684  1.00  0.00    -0.377 OA
ATOM     34  H   UNL     1      -1.328  -5.984  12.887  1.00  0.00     0.212 HD
ENDBRANCH  32  33
BRANCH  32  35
ATOM     35  N   UNL     1       0.233  -5.583  14.833  1.00  0.00    -0.305 NA
ATOM     36  H   UNL     1      -0.733  -5.263  14.992  1.00  0.00     0.121 HD
ATOM     37  H   UNL     1       0.504  -6.240  15.578  1.00  0.00     0.121 HD
ENDBRANCH  32  35
ENDBRANCH  28  32
ENDBRANCH  24  27
ENDBRANCH   1  24
TORSDOF 10
ENDMDL
MODEL 2
REMARK VINA RESULT:    -8.545      2.290      3.330
REMARK INTER + INTRA:         -13.981
REMARK INTER:                 -12.898
REMARK INTRA:                  -1.083
REMARK UNBOUND:                -1.190
REMARK SMILES C[C@H]1N[C@@H](N[C@@H](O)N2CCC[C@H]2[C@@H](N)O)S[C@@H]1[C@H]1CCN[C@H](C(C)(C)C(F)(F)F)C1
REMARK SMILES IDX 5 1 4 3 2 4 17 5 3 6 16 7 1 8 18 10 19 11 30 12 20 13 22 14
REMARK SMILES IDX 21 15 23 17 24 18 25 19 26 20 27 21 28 22 29 23 6 24 7 25
REMARK SMILES IDX 8 27 12 28 9 29 11 30 10 31 13 32 15 33 14 35
REMARK H PARENT 5 2 3 9 21 16 7 26 15 34 14 36 14 37
ROOT
ATOM      1  N   UNL     1       0.695  -8.084  12.219  1.00  0.00    -0.255 NA
ATOM      2  H   UNL     1       1.639  -7.735  12.439  1.00  0.00     0.129 HD
ENDROOT
BRANCH   1   3
ATOM      3  C   UNL     1       0.145  -8.457  13.430  1.00  0.00     0.185 C 
ATOM      4  C   UNL     1      -0.848  -9.812  14.871  1.00  0.00     0.066 C 
ATOM      5  C   UNL     1      -0.685  -8.718  15.716  1.00  0.00     0.069 C 
ATOM      6  N   UNL     1      -0.368  -9.651  13.587  1.00  0.00    -0.290 NA
ATOM      7  S   UNL     1       0.078  -7.429  14.817  1.00  0.00    -0.122 SA
ATOM      8  C   UNL     1      -1.464 -11.121  15.241  1.00  0.00     0.025 C 
ATOM      9  H   UNL     1       0.359 -10.357  13.406  1.00  0.00     0.125 HD
BRANCH   5  10
ATOM     10  C   UNL     1      -1.029  -8.437  17.127  1.00  0.00     0.006 C 
ATOM     11  C   UNL     1      -0.780  -7.194  17.700  1.00  0.00     0.020 C 
ATOM     12  C   UNL     1      -1.640  -9.420  17.899  1.00  0.00     0.024 C 
ATOM     13  C   UNL     1      -1.106  -7.001  19.024  1.00  0.00     0.081 C 
ATOM     14  C   UNL     1      -1.952  -9.121  19.234  1.00  0.00     0.068 C 
ATOM     15  N   UNL     1      -1.674  -7.938  19.797  1.00  0.00    -0.313 NA
ATOM     16  H   UNL     1      -1.035  -8.114  20.586  1.00  0.00     0.122 HD
BRANCH  14  17
ATOM     17  C   UNL     1      -2.693 -10.143  20.131  1.00  0.00     0.076 C 
ATOM     18  C   UNL     1      -3.702  -9.443  21.055  1.00  0.00     0.022 C 
ATOM     19  C   UNL     1      -3.422 -11.183  19.261  1.00  0.00     0.022 C 
BRANCH  17  20
ATOM     20  C   UNL     1      -1.626 -10.931  21.082  1.00  0.00     0.395 C 
ATOM     21  F   UNL     1      -1.407 -12.161  20.619  1.00  0.00    -0.170 F 
ATOM     22  F   UNL     1      -0.446 -10.326  21.151  1.00  0.00    -0.170 F 
ATOM     23  F   UNL     1      -2.065 -11.045  22.331  1.00  0.00    -0.170 F 
ENDBRANCH  17  20
ENDBRANCH  14  17
ENDBRANCH   5  10
ENDBRANCH   1   3
BRANCH   1  24
ATOM     24  C   UNL     1       0.856  -8.944  11.122  1.00  0.00     0.261 C 
BRANCH  24  25
ATOM     25  O   UNL     1      -0.099  -9.343  10.473  1.00  0.00    -0.365 OA
ATOM     26  H   UNL     1      -0.468  -8.597   9.936  1.00  0.00     0.214 HD
ENDBRANCH  24  25
BRANCH  24  27
ATOM     27  N   UNL     1       2.144  -9.326  10.800  1.00  0.00    -0.259 NA
ATOM     28  C   UNL     1       3.234  -8.336  10.826  1.00  0.00     0.104 C 
ATOM     29  C   UNL     1       2.612 -10.668  10.419  1.00  0.00     0.089 C 
ATOM     30  C   UNL     1       4.489  -9.167  10.517  1.00  0.00     0.025 C 
ATOM     31  C   UNL     1       3.981 -10.411   9.827  1.00  0.00     0.017 C 
BRANCH  28  32
ATOM     32  C   UNL     1       3.041  -7.188   9.834  1.00  0.00     0.197 C 
BRANCH  32  33
ATOM     33  O   UNL     1       3.359  -7.330   8.650  1.00  0.00    -0.377 OA
ATOM     34  H   UNL     1       2.750  -6.796   8.079  1.00  0.00     0.212 HD
ENDBRANCH  32  33
BRANCH  32  35
ATOM     35  N   UNL     1       2.596  -6.044  10.329  1.00  0.00    -0.305 NA
ATOM     36  H   UNL     1       3.383  -5.389  10.438  1.00  0.00     0.121 HD
ATOM     37  H   UNL     1       1.899  -5.640   9.687  1.00  0.00     0.121 HD
ENDBRANCH  32  35
ENDBRANCH  28  32
ENDBRANCH  24  27
ENDBRANCH   1  24
TORSDOF 10
ENDMDL
MODEL 3
REMARK VINA RESULT:    -8.474      1.735      2.926
REMARK INTER + INTRA:         -13.875
REMARK INTER:                 -13.024
REMARK INTRA:                  -0.851
REMARK UNBOUND:                -1.190
REMARK SMILES C[C@H]1N[C@@H](N[C@@H](O)N2CCC[C@H]2[C@@H](N)O)S[C@@H]1[C@H]1CCN[C@H](C(C)(C)C(F)(F)F)C1
REMARK SMILES IDX 5 1 4 3 2 4 17 5 3 6 16 7 1 8 18 10 19 11 30 12 20 13 22 14
REMARK SMILES IDX 21 15 23 17 24 18 25 19 26 20 27 21 28 22 29 23 6 24 7 25
REMARK SMILES IDX 8 27 12 28 9 29 11 30 10 31 13 32 15 33 14 35
REMARK H PARENT 5 2 3 9 21 16 7 26 15 34 14 36 14 37
ROOT
ATOM      1  N   UNL     1       0.331  -8.680  13.300  1.00  0.00    -0.255 NA
ATOM      2  H   UNL     1      -0.234  -9.122  12.560  1.00  0.00     0.129 HD
ENDROOT
BRANCH   1   3
ATOM      3  C   UNL     1      -0.370  -8.881  14.473  1.00  0.00     0.185 C 
ATOM      4  C   UNL     1      -1.121  -8.380  16.493  1.00  0.00     0.066 C 
ATOM      5  C   UNL     1      -1.761  -9.607  16.350  1.00  0.00     0.069 C 
ATOM      6  N   UNL     1      -0.346  -7.981  15.423  1.00  0.00    -0.290 NA
ATOM      7  S   UNL     1      -1.321 -10.286  14.800  1.00  0.00    -0.122 SA
ATOM      8  C   UNL     1      -1.222  -7.472  17.676  1.00  0.00     0.025 C 
ATOM      9  H   UNL     1      -0.710  -7.091  15.055  1.00  0.00     0.125 HD
BRANCH   5  10
ATOM     10  C   UNL     1      -2.662 -10.414  17.202  1.00  0.00     0.006 C 
ATOM     11  C   UNL     1      -3.436 -11.439  16.670  1.00  0.00     0.020 C 
ATOM     12  C   UNL     1      -2.724 -10.168  18.570  1.00  0.00     0.024 C 
ATOM     13  C   UNL     1      -4.270 -12.141  17.512  1.00  0.00     0.081 C 
ATOM     14  C   UNL     1      -3.589 -10.950  19.349  1.00  0.00     0.068 C 
ATOM     15  N   UNL     1      -4.366 -11.910  18.829  1.00  0.00    -0.313 NA
ATOM     16  H   UNL     1      -5.345 -11.655  19.026  1.00  0.00     0.122 HD
BRANCH  14  17
ATOM     17  C   UNL     1      -3.659 -10.778  20.886  1.00  0.00     0.076 C 
ATOM     18  C   UNL     1      -4.154  -9.374  21.266  1.00  0.00     0.022 C 
ATOM     19  C   UNL     1      -4.591 -11.839  21.497  1.00  0.00     0.022 C 
BRANCH  17  20
ATOM     20  C   UNL     1      -2.175 -10.965  21.539  1.00  0.00     0.395 C 
ATOM     21  F   UNL     1      -1.523 -11.962  20.943  1.00  0.00    -0.170 F 
ATOM     22  F   UNL     1      -1.417  -9.881  21.424  1.00  0.00    -0.170 F 
ATOM     23  F   UNL     1      -2.236 -11.246  22.836  1.00  0.00    -0.170 F 
ENDBRANCH  17  20
ENDBRANCH  14  17
ENDBRANCH   5  10
ENDBRANCH   1   3
BRANCH   1  24
ATOM     24  C   UNL     1       0.694  -7.422  12.798  1.00  0.00     0.261 C 
BRANCH  24  25
ATOM     25  O   UNL     1       0.020  -6.425  13.013  1.00  0.00    -0.365 OA
ATOM     26  H   UNL     1       0.504  -5.624  12.690  1.00  0.00     0.214 HD
ENDBRANCH  24  25
BRANCH  24  27
ATOM     27  N   UNL     1       1.851  -7.348  12.045  1.00  0.00    -0.259 NA
ATOM     28  C   UNL     1       1.784  -7.475  10.580  1.00  0.00     0.104 C 
ATOM     29  C   UNL     1       3.224  -7.136  12.529  1.00  0.00     0.089 C 
ATOM     30  C   UNL     1       3.232  -7.236  10.126  1.00  0.00     0.025 C 
ATOM     31  C   UNL     1       4.081  -7.521  11.343  1.00  0.00     0.017 C 
BRANCH  28  32
ATOM     32  C   UNL     1       1.245  -8.827  10.107  1.00  0.00     0.197 C 
BRANCH  32  33
ATOM     33  O   UNL     1       0.070  -9.137  10.320  1.00  0.00    -0.377 OA
ATOM     34  H   UNL     1      -0.510  -8.347  10.180  1.00  0.00     0.212 HD
ENDBRANCH  32  33
BRANCH  32  35
ATOM     35  N   UNL     1       2.115  -9.647   9.540  1.00  0.00    -0.305 NA
ATOM     36  H   UNL     1       1.614 -10.447   9.129  1.00  0.00     0.121 HD
ATOM     37  H   UNL     1       2.628  -9.145   8.800  1.00  0.00     0.121 HD
ENDBRANCH  32  35
ENDBRANCH  28  32
ENDBRANCH  24  27
ENDBRANCH   1  24
TORSDOF 10
ENDMDL
MODEL 4
REMARK VINA RESULT:    -8.391      1.094      1.865
REMARK INTER + INTRA:         -13.751
REMARK INTER:                 -12.602
REMARK INTRA:                  -1.149
REMARK UNBOUND:                -1.190
REMARK SMILES C[C@H]1N[C@@H](N[C@@H](O)N2CCC[C@H]2[C@@H](N)O)S[C@@H]1[C@H]1CCN[C@H](C(C)(C)C(F)(F)F)C1
REMARK SMILES IDX 5 1 4 3 2 4 17 5 3 6 16 7 1 8 18 10 19 11 30 12 20 13 22 14
REMARK SMILES IDX 21 15 23 17 24 18 25 19 26 20 27 21 28 22 29 23 6 24 7 25
REMARK SMILES IDX 8 27 12 28 9 29 11 30 10 31 13 32 15 33 14 35
REMARK H PARENT 5 2 3 9 21 16 7 26 15 34 14 36 14 37
ROOT
ATOM      1  N   UNL     1      -0.032  -9.895  13.997  1.00  0.00    -0.255 NA
ATOM      2  H   UNL     1       0.263 -10.738  13.484  1.00  0.00     0.129 HD
ENDROOT
BRANCH   1   3
ATOM      3  C   UNL     1      -0.993 -10.321  14.893  1.00  0.00     0.185 C 
ATOM      4  C   UNL     1      -2.815 -11.390  15.549  1.00  0.00     0.066 C 
ATOM      5  C   UNL     1      -2.439 -10.875  16.786  1.00  0.00     0.069 C 
ATOM      6  N   UNL     1      -1.986 -11.074  14.493  1.00  0.00    -0.290 NA
ATOM      7  S   UNL     1      -0.989  -9.923  16.574  1.00  0.00    -0.122 SA
ATOM      8  C   UNL     1      -4.005 -12.255  15.286  1.00  0.00     0.025 C 
ATOM      9  H   UNL     1      -1.609 -11.943  14.087  1.00  0.00     0.125 HD
BRANCH   5  10
ATOM     10  C   UNL     1      -2.998 -10.946  18.154  1.00  0.00     0.006 C 
ATOM     11  C   UNL     1      -4.142 -11.686  18.431  1.00  0.00     0.020 C 
ATOM     12  C   UNL     1      -2.358 -10.285  19.198  1.00  0.00     0.024 C 
ATOM     13  C   UNL     1      -4.624 -11.697  19.722  1.00  0.00     0.081 C 
ATOM     14  C   UNL     1      -2.915 -10.372  20.482  1.00  0.00     0.068 C 
ATOM     15  N   UNL     1      -4.041 -11.050  20.741  1.00  0.00    -0.313 NA
ATOM     16  H   UNL     1      -4.727 -10.378  21.112  1.00  0.00     0.122 HD
BRANCH  14  17
ATOM     17  C   UNL     1      -2.220  -9.718  21.701  1.00  0.00     0.076 C 
ATOM     18  C   UNL     1      -1.885  -8.243  21.427  1.00  0.00     0.022 C 
ATOM     19  C   UNL     1      -3.121  -9.822  22.944  1.00  0.00     0.022 C 
BRANCH  17  20
ATOM     20  C   UNL     1      -0.816 -10.484  22.025  1.00  0.00     0.395 C 
ATOM     21  F   UNL     1      -0.516 -10.385  23.319  1.00  0.00    -0.170 F 
ATOM     22  F   UNL     1      -0.852 -11.779  21.732  1.00  0.00    -0.170 F 
ATOM     23  F   UNL     1       0.199  -9.971  21.338  1.00  0.00    -0.170 F 
ENDBRANCH  17  20
ENDBRANCH  14  17
ENDBRANCH   5  10
ENDBRANCH   1   3
BRANCH   1  24
ATOM     24  C   UNL     1      -0.240  -8.911  13.018  1.00  0.00     0.261 C 
BRANCH  24  25
ATOM     25  O   UNL     1      -1.151  -8.993  12.208  1.00  0.00    -0.365 OA
ATOM     26  H   UNL     1      -2.010  -9.106  12.688  1.00  0.00     0.214 HD
ENDBRANCH  24  25
BRANCH  24  27
ATOM     27  N   UNL     1       0.628  -7.836  13.004  1.00  0.00    -0.259 NA
ATOM     28  C   UNL     1       0.971  -7.185  11.728  1.00  0.00     0.104 C 
ATOM     29  C   UNL     1       1.293  -7.204  14.154  1.00  0.00     0.089 C 
ATOM     30  C   UNL     1       1.855  -6.001  12.149  1.00  0.00     0.025 C 
ATOM     31  C   UNL     1       2.379  -6.364  13.519  1.00  0.00     0.017 C 
BRANCH  28  32
ATOM     32  C   UNL     1       1.679  -8.113  10.739  1.00  0.00     0.197 C 
BRANCH  32  33
ATOM     33  O   UNL     1       2.885  -8.346  10.859  1.00  0.00    -0.377 OA
ATOM     34  H   UNL     1       3.208  -8.832  10.060  1.00  0.00     0.212 HD
ENDBRANCH  32  33
BRANCH  32  35
ATOM     35  N   UNL     1       0.953  -8.574   9.733  1.00  0.00    -0.305 NA
ATOM     36  H   UNL     1      -0.015  -8.725  10.050  1.00  0.00     0.121 HD
ATOM     37  H   UNL     1       0.960  -7.891   8.963  1.00  0.00     0.121 HD
ENDBRANCH  32  35
ENDBRANCH  28  32
ENDBRANCH  24  27
ENDBRANCH   1  24
TORSDOF 10
ENDMDL
MODEL 5
REMARK VINA RESULT:    -8.357      1.259      2.291
REMARK INTER + INTRA:         -13.700
REMARK INTER:                 -12.328
REMARK INTRA:                  -1.372
REMARK UNBOUND:                -1.190
REMARK SMILES C[C@H]1N[C@@H](N[C@@H](O)N2CCC[C@H]2[C@@H](N)O)S[C@@H]1[C@H]1CCN[C@H](C(C)(C)C(F)(F)F)C1
REMARK SMILES IDX 5 1 4 3 2 4 17 5 3 6 16 7 1 8 18 10 19 11 30 12 20 13 22 14
REMARK SMILES IDX 21 15 23 17 24 18 25 19 26 20 27 21 28 22 29 23 6 24 7 25
REMARK SMILES IDX 8 27 12 28 9 29 11 30 10 31 13 32 15 33 14 35
REMARK H PARENT 5 2 3 9 21 16 7 26 15 34 14 36 14 37
ROOT
ATOM      1  N   UNL     1       0.562  -6.826  14.742  1.00  0.00    -0.255 NA
ATOM      2  H   UNL     1       1.547  -7.013  14.978  1.00  0.00     0.129 HD
ENDROOT
BRANCH   1   3
ATOM      3  C   UNL     1      -0.163  -7.838  15.341  1.00  0.00     0.185 C 
ATOM      4  C   UNL     1      -1.071  -9.849  15.512  1.00  0.00     0.066 C 
ATOM      5  C   UNL     1      -1.469  -9.352  16.750  1.00  0.00     0.069 C 
ATOM      6  N   UNL     1      -0.329  -8.985  14.732  1.00  0.00    -0.290 NA
ATOM      7  S   UNL     1      -0.900  -7.706  16.898  1.00  0.00    -0.122 SA
ATOM      8  C   UNL     1      -1.356 -11.217  14.984  1.00  0.00     0.025 C 
ATOM      9  H   UNL     1       0.593  -9.405  14.546  1.00  0.00     0.125 HD
BRANCH   5  10
ATOM     10  C   UNL     1      -2.250  -9.894  17.884  1.00  0.00     0.006 C 
ATOM     11  C   UNL     1      -3.348 -10.721  17.677  1.00  0.00     0.020 C 
ATOM     12  C   UNL     1      -1.869  -9.599  19.189  1.00  0.00     0.024 C 
ATOM     13  C   UNL     1      -4.045 -11.178  18.774  1.00  0.00     0.081 C 
ATOM     14  C   UNL     1      -2.630 -10.129  20.241  1.00  0.00     0.068 C 
ATOM     15  N   UNL     1      -3.714 -10.891  20.040  1.00  0.00    -0.313 NA
ATOM     16  H   UNL     1      -4.516 -10.404  20.465  1.00  0.00     0.122 HD
BRANCH  14  17
ATOM     17  C   UNL     1      -2.226  -9.898  21.717  1.00  0.00     0.076 C 
ATOM     18  C   UNL     1      -1.946  -8.412  21.992  1.00  0.00     0.022 C 
ATOM     19  C   UNL     1      -3.338 -10.397  22.656  1.00  0.00     0.022 C 
BRANCH  17  20
ATOM     20  C   UNL     1      -0.860 -10.723  22.061  1.00  0.00     0.395 C 
ATOM     21  F   UNL     1       0.214 -10.007  21.730  1.00  0.00    -0.170 F 
ATOM     22  F   UNL     1      -0.746 -11.023  23.349  1.00  0.00    -0.170 F 
ATOM     23  F   UNL     1      -0.795 -11.873  21.399  1.00  0.00    -0.170 F 
ENDBRANCH  17  20
ENDBRANCH  14  17
ENDBRANCH   5  10
ENDBRANCH   1   3
BRANCH   1  24
ATOM     24  C   UNL     1       0.549  -6.547  13.367  1.00  0.00     0.261 C 
BRANCH  24  25
ATOM     25  O   UNL     1      -0.387  -5.967  12.838  1.00  0.00    -0.365 OA
ATOM     26  H   UNL     1      -1.240  -6.357  13.158  1.00  0.00     0.214 HD
ENDBRANCH  24  25
BRANCH  24  27
ATOM     27  N   UNL     1       1.642  -6.954  12.627  1.00  0.00    -0.259 NA
ATOM     28  C   UNL     1       1.444  -7.636  11.337  1.00  0.00     0.104 C 
ATOM     29  C   UNL     1       3.065  -6.784  12.959  1.00  0.00     0.089 C 
ATOM     30  C   UNL     1       2.871  -7.822  10.798  1.00  0.00     0.025 C 
ATOM     31  C   UNL     1       3.767  -7.731  12.011  1.00  0.00     0.017 C 
BRANCH  28  32
ATOM     32  C   UNL     1       0.694  -8.965  11.457  1.00  0.00     0.197 C 
BRANCH  32  33
ATOM     33  O   UNL     1      -0.464  -8.989  11.885  1.00  0.00    -0.377 OA
ATOM     34  H   UNL     1      -0.505  -8.511  12.750  1.00  0.00     0.212 HD
ENDBRANCH  32  33
BRANCH  32  35
ATOM     35  N   UNL     1       1.372 -10.059  11.153  1.00  0.00    -0.305 NA
ATOM     36  H   UNL     1       0.964 -10.864  11.647  1.00  0.00     0.121 HD
ATOM     37  H   UNL     1       1.326 -10.221  10.136  1.00  0.00     0.121 HD
ENDBRANCH  32  35
ENDBRANCH  28  32
ENDBRANCH  24  27
ENDBRANCH   1  24
TORSDOF 10
ENDMDL
MODEL 6
REMARK VINA RESULT:    -8.284      2.531      3.669
REMARK INTER + INTRA:         -13.591
REMARK INTER:                 -13.111
REMARK INTRA:                  -0.480
REMARK UNBOUND:                -1.190
REMARK SMILES C[C@H]1N[C@@H](N[C@@H](O)N2CCC[C@H]2[C@@H](N)O)S[C@@H]1[C@H]1CCN[C@H](C(C)(C)C(F)(F)F)C1
REMARK SMILES IDX 5 1 4 3 2 4 17 5 3 6 16 7 1 8 18 10 19 11 30 12 20 13 22 14
REMARK SMILES IDX 21 15 23 17 24 18 25 19 26 20 27 21 28 22 29 23 6 24 7 25
REMARK SMILES IDX 8 27 12 28 9 29 11 30 10 31 13 32 15 33 14 35
REMARK H PARENT 5 2 3 9 21 16 7 26 15 34 14 36 14 37
ROOT
ATOM      1  N   UNL     1       0.614  -7.986  12.153  1.00  0.00    -0.255 NA
ATOM      2  H   UNL     1       1.525  -7.537  12.324  1.00  0.00     0.129 HD
ENDROOT
BRANCH   1   3
ATOM      3  C   UNL     1       0.149  -8.369  13.397  1.00  0.00     0.185 C 
ATOM      4  C   UNL     1      -0.224  -8.167  15.568  1.00  0.00     0.066 C 
ATOM      5  C   UNL     1      -0.849  -9.396  15.379  1.00  0.00     0.069 C 
ATOM      6  N   UNL     1       0.328  -7.597  14.438  1.00  0.00    -0.290 NA
ATOM      7  S   UNL     1      -0.689  -9.849  13.699  1.00  0.00    -0.122 SA
ATOM      8  C   UNL     1      -0.126  -7.423  16.860  1.00  0.00     0.025 C 
ATOM      9  H   UNL     1      -0.121  -6.687  14.266  1.00  0.00     0.125 HD
BRANCH   5  10
ATOM     10  C   UNL     1      -1.556 -10.348  16.264  1.00  0.00     0.006 C 
ATOM     11  C   UNL     1      -1.915 -11.617  15.823  1.00  0.00     0.020 C 
ATOM     12  C   UNL     1      -1.848  -9.987  17.576  1.00  0.00     0.024 C 
ATOM     13  C   UNL     1      -2.588 -12.450  16.689  1.00  0.00     0.081 C 
ATOM     14  C   UNL     1      -2.519 -10.912  18.388  1.00  0.00     0.068 C 
ATOM     15  N   UNL     1      -2.902 -12.119  17.950  1.00  0.00    -0.313 NA
ATOM     16  H   UNL     1      -3.928 -12.166  18.034  1.00  0.00     0.122 HD
BRANCH  14  17
ATOM     17  C   UNL     1      -2.816 -10.604  19.876  1.00  0.00     0.076 C 
ATOM     18  C   UNL     1      -1.800 -11.294  20.801  1.00  0.00     0.022 C 
ATOM     19  C   UNL     1      -2.789  -9.085  20.119  1.00  0.00     0.022 C 
BRANCH  17  20
ATOM     20  C   UNL     1      -4.297 -11.159  20.279  1.00  0.00     0.395 C 
ATOM     21  F   UNL     1      -4.937 -10.272  21.039  1.00  0.00    -0.170 F 
ATOM     22  F   UNL     1      -5.068 -11.395  19.224  1.00  0.00    -0.170 F 
ATOM     23  F   UNL     1      -4.232 -12.298  20.960  1.00  0.00    -0.170 F 
ENDBRANCH  17  20
ENDBRANCH  14  17
ENDBRANCH   5  10
ENDBRANCH   1   3
BRANCH   1  24
ATOM     24  C   UNL     1       0.821  -8.865  11.079  1.00  0.00     0.261 C 
BRANCH  24  25
ATOM     25  O   UNL     1      -0.106  -9.277  10.398  1.00  0.00    -0.365 OA
ATOM     26  H   UNL     1       0.144 -10.144   9.991  1.00  0.00     0.214 HD
ENDBRANCH  24  25
BRANCH  24  27
ATOM     27  N   UNL     1       2.122  -9.250  10.817  1.00  0.00    -0.259 NA
ATOM     28  C   UNL     1       3.216  -8.272  10.930  1.00  0.00     0.104 C 
ATOM     29  C   UNL     1       2.600 -10.586  10.425  1.00  0.00     0.089 C 
ATOM     30  C   UNL     1       4.480  -9.106  10.666  1.00  0.00     0.025 C 
ATOM     31  C   UNL     1       4.001 -10.326   9.916  1.00  0.00     0.017 C 
BRANCH  28  32
ATOM     32  C   UNL     1       3.087  -7.095   9.961  1.00  0.00     0.197 C 
BRANCH  32  33
ATOM     33  O   UNL     1       3.398  -7.230   8.774  1.00  0.00    -0.377 OA
ATOM     34  H   UNL     1       2.589  -7.139   8.210  1.00  0.00     0.212 HD
ENDBRANCH  32  33
BRANCH  32  35
ATOM     35  N   UNL     1       2.705  -5.939  10.478  1.00  0.00    -0.305 NA
ATOM     36  H   UNL     1       2.996  -5.172   9.857  1.00  0.00     0.121 HD
ATOM     37  H   UNL     1       1.680  -5.929  10.578  1.00  0.00     0.121 HD
ENDBRANCH  32  35
ENDBRANCH  28  32
ENDBRANCH  24  27
ENDBRANCH   1  24
TORSDOF 10
ENDMDL
MODEL 7
REMARK VINA RESULT:    -7.997      2.485      3.934
REMARK INTER + INTRA:         -13.160
REMARK INTER:                 -12.650
REMARK INTRA:                  -0.511
REMARK UNBOUND:                -1.190
REMARK SMILES C[C@H]1N[C@@H](N[C@@H](O)N2CCC[C@H]2[C@@H](N)O)S[C@@H]1[C@H]1CCN[C@H](C(C)(C)C(F)(F)F)C1
REMARK SMILES IDX 5 1 4 3 2 4 17 5 3 6 16 7 1 8 18 10 19 11 30 12 20 13 22 14
REMARK SMILES IDX 21 15 23 17 24 18 25 19 26 20 27 21 28 22 29 23 6 24 7 25
REMARK SMILES IDX 8 27 12 28 9 29 11 30 10 31 13 32 15 33 14 35
REMARK H PARENT 5 2 3 9 21 16 7 26 15 34 14 36 14 37
ROOT
ATOM      1  N   UNL     1       0.804  -7.187  12.653  1.00  0.00    -0.255 NA
ATOM      2  H   UNL     1       0.371  -6.259  12.543  1.00  0.00     0.129 HD
ENDROOT
BRANCH   1   3
ATOM      3  C   UNL     1       0.277  -7.706  13.821  1.00  0.00     0.185 C 
ATOM      4  C   UNL     1      -0.319  -7.696  15.951  1.00  0.00     0.066 C 
ATOM      5  C   UNL     1      -0.761  -8.977  15.634  1.00  0.00     0.069 C 
ATOM      6  N   UNL     1       0.259  -6.990  14.916  1.00  0.00    -0.290 NA
ATOM      7  S   UNL     1      -0.389  -9.294  13.956  1.00  0.00    -0.122 SA
ATOM      8  C   UNL     1      -0.437  -7.034  17.286  1.00  0.00     0.025 C 
ATOM      9  H   UNL     1      -0.284  -6.131  14.749  1.00  0.00     0.125 HD
BRANCH   5  10
ATOM     10  C   UNL     1      -1.420 -10.065  16.390  1.00  0.00     0.006 C 
ATOM     11  C   UNL     1      -1.578 -11.334  15.844  1.00  0.00     0.020 C 
ATOM     12  C   UNL     1      -1.870  -9.832  17.686  1.00  0.00     0.024 C 
ATOM     13  C   UNL     1      -2.217 -12.299  16.591  1.00  0.00     0.081 C 
ATOM     14  C   UNL     1      -2.491 -10.884  18.375  1.00  0.00     0.068 C 
ATOM     15  N   UNL     1      -2.681 -12.095  17.832  1.00  0.00    -0.313 NA
ATOM     16  H   UNL     1      -3.696 -12.269  17.814  1.00  0.00     0.122 HD
BRANCH  14  17
ATOM     17  C   UNL     1      -2.955 -10.718  19.842  1.00  0.00     0.076 C 
ATOM     18  C   UNL     1      -2.032 -11.479  20.807  1.00  0.00     0.022 C 
ATOM     19  C   UNL     1      -2.985  -9.227  20.223  1.00  0.00     0.022 C 
BRANCH  17  20
ATOM     20  C   UNL     1      -4.459 -11.322  20.027  1.00  0.00     0.395 C 
ATOM     21  F   UNL     1      -4.990 -11.625  18.844  1.00  0.00    -0.170 F 
ATOM     22  F   UNL     1      -4.487 -12.429  20.760  1.00  0.00    -0.170 F 
ATOM     23  F   UNL     1      -5.273 -10.457  20.622  1.00  0.00    -0.170 F 
ENDBRANCH  17  20
ENDBRANCH  14  17
ENDBRANCH   5  10
ENDBRANCH   1   3
BRANCH   1  24
ATOM     24  C   UNL     1       2.173  -6.998  12.416  1.00  0.00     0.261 C 
BRANCH  24  25
ATOM     25  O   UNL     1       2.944  -6.691  13.314  1.00  0.00    -0.365 OA
ATOM     26  H   UNL     1       3.525  -5.949  13.010  1.00  0.00     0.214 HD
ENDBRANCH  24  25
BRANCH  24  27
ATOM     27  N   UNL     1       2.624  -7.171  11.122  1.00  0.00    -0.259 NA
ATOM     28  C   UNL     1       1.712  -7.692  10.089  1.00  0.00     0.104 C 
ATOM     29  C   UNL     1       3.966  -6.882  10.593  1.00  0.00     0.089 C 
ATOM     30  C   UNL     1       2.549  -7.635   8.801  1.00  0.00     0.025 C 
ATOM     31  C   UNL     1       3.987  -7.604   9.264  1.00  0.00     0.017 C 
BRANCH  28  32
ATOM     32  C   UNL     1       1.198  -9.102  10.383  1.00  0.00     0.197 C 
BRANCH  32  33
ATOM     33  O   UNL     1       1.990 -10.041  10.502  1.00  0.00    -0.377 OA
ATOM     34  H   UNL     1       2.902  -9.733  10.271  1.00  0.00     0.212 HD
ENDBRANCH  32  33
BRANCH  32  35
ATOM     35  N   UNL     1      -0.115  -9.259  10.424  1.00  0.00    -0.305 NA
ATOM     36  H   UNL     1      -0.340 -10.167  10.853  1.00  0.00     0.121 HD
ATOM     37  H   UNL     1      -0.535  -8.502  10.983  1.00  0.00     0.121 HD
ENDBRANCH  32  35
ENDBRANCH  28  32
ENDBRANCH  24  27
ENDBRANCH   1  24
TORSDOF 10
ENDMDL
MODEL 8
REMARK VINA RESULT:    -7.975      1.795      2.587
REMARK INTER + INTRA:         -13.128
REMARK INTER:                 -12.081
REMARK INTRA:                  -1.047
REMARK UNBOUND:                -1.190
REMARK SMILES C[C@H]1N[C@@H](N[C@@H](O)N2CCC[C@H]2[C@@H](N)O)S[C@@H]1[C@H]1CCN[C@H](C(C)(C)C(F)(F)F)C1
REMARK SMILES IDX 5 1 4 3 2 4 17 5 3 6 16 7 1 8 18 10 19 11 30 12 20 13 22 14
REMARK SMILES IDX 21 15 23 17 24 18 25 19 26 20 27 21 28 22 29 23 6 24 7 25
REMARK SMILES IDX 8 27 12 28 9 29 11 30 10 31 13 32 15 33 14 35
REMARK H PARENT 5 2 3 9 21 16 7 26 15 34 14 36 14 37
ROOT
ATOM      1  N   UNL     1       0.295  -8.495  13.182  1.00  0.00    -0.255 NA
ATOM      2  H   UNL     1      -0.296  -8.872  12.427  1.00  0.00     0.129 HD
ENDROOT
BRANCH   1   3
ATOM      3  C   UNL     1      -0.363  -8.801  14.358  1.00  0.00     0.185 C 
ATOM      4  C   UNL     1      -0.982  -8.521  16.463  1.00  0.00     0.066 C 
ATOM      5  C   UNL     1      -1.712  -9.676  16.201  1.00  0.00     0.069 C 
ATOM      6  N   UNL     1      -0.231  -8.036  15.411  1.00  0.00    -0.290 NA
ATOM      7  S   UNL     1      -1.393 -10.174  14.556  1.00  0.00    -0.122 SA
ATOM      8  C   UNL     1      -0.964  -7.769  17.754  1.00  0.00     0.025 C 
ATOM      9  H   UNL     1      -0.550  -7.085  15.179  1.00  0.00     0.125 HD
BRANCH   5  10
ATOM     10  C   UNL     1      -2.627 -10.528  16.992  1.00  0.00     0.006 C 
ATOM     11  C   UNL     1      -3.356 -11.554  16.400  1.00  0.00     0.020 C 
ATOM     12  C   UNL     1      -2.747 -10.326  18.364  1.00  0.00     0.024 C 
ATOM     13  C   UNL     1      -4.205 -12.299  17.188  1.00  0.00     0.081 C 
ATOM     14  C   UNL     1      -3.623 -11.150  19.084  1.00  0.00     0.068 C 
ATOM     15  N   UNL     1      -4.357 -12.110  18.506  1.00  0.00    -0.313 NA
ATOM     16  H   UNL     1      -5.348 -11.883  18.672  1.00  0.00     0.122 HD
BRANCH  14  17
ATOM     17  C   UNL     1      -3.756 -11.026  20.622  1.00  0.00     0.076 C 
ATOM     18  C   UNL     1      -4.437  -9.706  21.017  1.00  0.00     0.022 C 
ATOM     19  C   UNL     1      -4.562 -12.212  21.182  1.00  0.00     0.022 C 
BRANCH  17  20
ATOM     20  C   UNL     1      -2.280 -11.040  21.316  1.00  0.00     0.395 C 
ATOM     21  F   UNL     1      -1.660  -9.877  21.120  1.00  0.00    -0.170 F 
ATOM     22  F   UNL     1      -2.325 -11.240  22.628  1.00  0.00    -0.170 F 
ATOM     23  F   UNL     1      -1.505 -11.996  20.817  1.00  0.00    -0.170 F 
ENDBRANCH  17  20
ENDBRANCH  14  17
ENDBRANCH   5  10
ENDBRANCH   1   3
BRANCH   1  24
ATOM     24  C   UNL     1       0.638  -7.195  12.780  1.00  0.00     0.261 C 
BRANCH  24  25
ATOM     25  O   UNL     1      -0.105  -6.245  12.977  1.00  0.00    -0.365 OA
ATOM     26  H   UNL     1      -1.047  -6.547  12.928  1.00  0.00     0.214 HD
ENDBRANCH  24  25
BRANCH  24  27
ATOM     27  N   UNL     1       1.855  -7.026  12.149  1.00  0.00    -0.259 NA
ATOM     28  C   UNL     1       3.089  -6.928  12.946  1.00  0.00     0.104 C 
ATOM     29  C   UNL     1       2.111  -6.935  10.703  1.00  0.00     0.089 C 
ATOM     30  C   UNL     1       4.202  -6.854  11.888  1.00  0.00     0.025 C 
ATOM     31  C   UNL     1       3.518  -6.385  10.625  1.00  0.00     0.017 C 
BRANCH  28  32
ATOM     32  C   UNL     1       3.112  -5.726  13.893  1.00  0.00     0.197 C 
BRANCH  32  33
ATOM     33  O   UNL     1       2.608  -4.653  13.548  1.00  0.00    -0.377 OA
ATOM     34  H   UNL     1       2.200  -4.213  14.335  1.00  0.00     0.212 HD
ENDBRANCH  32  33
BRANCH  32  35
ATOM     35  N   UNL     1       3.753  -5.885  15.039  1.00  0.00    -0.305 NA
ATOM     36  H   UNL     1       3.116  -5.681  15.821  1.00  0.00     0.121 HD
ATOM     37  H   UNL     1       4.088  -6.857  15.114  1.00  0.00     0.121 HD
ENDBRANCH  32  35
ENDBRANCH  28  32
ENDBRANCH  24  27
ENDBRANCH   1  24
TORSDOF 10
ENDMDL
MODEL 9
REMARK VINA RESULT:    -7.872      2.180      3.582
REMARK INTER + INTRA:         -12.974
REMARK INTER:                 -11.789
REMARK INTRA:                  -1.185
REMARK UNBOUND:                -1.190
REMARK SMILES C[C@H]1N[C@@H](N[C@@H](O)N2CCC[C@H]2[C@@H](N)O)S[C@@H]1[C@H]1CCN[C@H](C(C)(C)C(F)(F)F)C1
REMARK SMILES IDX 5 1 4 3 2 4 17 5 3 6 16 7 1 8 18 10 19 11 30 12 20 13 22 14
REMARK SMILES IDX 21 15 23 17 24 18 25 19 26 20 27 21 28 22 29 23 6 24 7 25
REMARK SMILES IDX 8 27 12 28 9 29 11 30 10 31 13 32 15 33 14 35
REMARK H PARENT 5 2 3 9 21 16 7 26 15 34 14 36 14 37
ROOT
ATOM      1  N   UNL     1       0.947  -6.944  12.740  1.00  0.00    -0.255 NA
ATOM      2  H   UNL     1       0.750  -5.935  12.795  1.00  0.00     0.129 HD
ENDROOT
BRANCH   1   3
ATOM      3  C   UNL     1       0.349  -7.500  13.855  1.00  0.00     0.185 C 
ATOM      4  C   UNL     1      -0.566  -9.105  15.073  1.00  0.00     0.066 C 
ATOM      5  C   UNL     1      -0.635  -8.085  16.016  1.00  0.00     0.069 C 
ATOM      6  N   UNL     1      -0.002  -8.761  13.861  1.00  0.00    -0.290 NA
ATOM      7  S   UNL     1       0.015  -6.626  15.307  1.00  0.00    -0.122 SA
ATOM      8  C   UNL     1      -1.022 -10.514  15.270  1.00  0.00     0.025 C 
ATOM      9  H   UNL     1       0.831  -9.344  13.698  1.00  0.00     0.125 HD
BRANCH   5  10
ATOM     10  C   UNL     1      -1.139  -7.987  17.404  1.00  0.00     0.006 C 
ATOM     11  C   UNL     1      -1.176  -6.770  18.077  1.00  0.00     0.020 C 
ATOM     12  C   UNL     1      -1.615  -9.124  18.049  1.00  0.00     0.024 C 
ATOM     13  C   UNL     1      -1.639  -6.747  19.374  1.00  0.00     0.081 C 
ATOM     14  C   UNL     1      -2.085  -8.997  19.364  1.00  0.00     0.068 C 
ATOM     15  N   UNL     1      -2.081  -7.832  20.027  1.00  0.00    -0.313 NA
ATOM     16  H   UNL     1      -1.487  -7.953  20.860  1.00  0.00     0.122 HD
BRANCH  14  17
ATOM     17  C   UNL     1      -2.690 -10.205  20.119  1.00  0.00     0.076 C 
ATOM     18  C   UNL     1      -3.893  -9.780  20.976  1.00  0.00     0.022 C 
ATOM     19  C   UNL     1      -3.125 -11.291  19.119  1.00  0.00     0.022 C 
BRANCH  17  20
ATOM     20  C   UNL     1      -1.580 -10.853  21.124  1.00  0.00     0.395 C 
ATOM     21  F   UNL     1      -1.330 -12.119  20.792  1.00  0.00    -0.170 F 
ATOM     22  F   UNL     1      -0.419 -10.208  21.099  1.00  0.00    -0.170 F 
ATOM     23  F   UNL     1      -1.989 -10.843  22.388  1.00  0.00    -0.170 F 
ENDBRANCH  17  20
ENDBRANCH  14  17
ENDBRANCH   5  10
ENDBRANCH   1   3
BRANCH   1  24
ATOM     24  C   UNL     1       2.313  -7.047  12.438  1.00  0.00     0.261 C 
BRANCH  24  25
ATOM     25  O   UNL     1       3.168  -7.026  13.311  1.00  0.00    -0.365 OA
ATOM     26  H   UNL     1       3.343  -7.950  13.623  1.00  0.00     0.214 HD
ENDBRANCH  24  25
BRANCH  24  27
ATOM     27  N   UNL     1       2.661  -7.175  11.107  1.00  0.00    -0.259 NA
ATOM     28  C   UNL     1       1.673  -7.669  10.133  1.00  0.00     0.104 C 
ATOM     29  C   UNL     1       3.956  -6.859  10.484  1.00  0.00     0.089 C 
ATOM     30  C   UNL     1       2.405  -7.564   8.785  1.00  0.00     0.025 C 
ATOM     31  C   UNL     1       3.875  -7.537   9.134  1.00  0.00     0.017 C 
BRANCH  28  32
ATOM     32  C   UNL     1       1.190  -9.092  10.419  1.00  0.00     0.197 C 
BRANCH  32  33
ATOM     33  O   UNL     1       1.977 -10.041  10.352  1.00  0.00    -0.377 OA
ATOM     34  H   UNL     1       1.731 -10.620   9.588  1.00  0.00     0.212 HD
ENDBRANCH  32  33
BRANCH  32  35
ATOM     35  N   UNL     1      -0.101  -9.243  10.661  1.00  0.00    -0.305 NA
ATOM     36  H   UNL     1      -0.640  -8.998   9.819  1.00  0.00     0.121 HD
ATOM     37  H   UNL     1      -0.291 -10.223  10.916  1.00  0.00     0.121 HD
ENDBRANCH  32  35
ENDBRANCH  28  32
ENDBRANCH  24  27
ENDBRANCH   1  24
TORSDOF 10
ENDMDL
MODEL 10
REMARK VINA RESULT:    -7.720      1.528      2.145
REMARK INTER + INTRA:         -12.746
REMARK INTER:                 -11.640
REMARK INTRA:                  -1.106
REMARK UNBOUND:                -1.190
REMARK SMILES C[C@H]1N[C@@H](N[C@@H](O)N2CCC[C@H]2[C@@H](N)O)S[C@@H]1[C@H]1CCN[C@H](C(C)(C)C(F)(F)F)C1
REMARK SMILES IDX 5 1 4 3 2 4 17 5 3 6 16 7 1 8 18 10 19 11 30 12 20 13 22 14
REMARK SMILES IDX 21 15 23 17 24 18 25 19 26 20 27 21 28 22 29 23 6 24 7 25
REMARK SMILES IDX 8 27 12 28 9 29 11 30 10 31 13 32 15 33 14 35
REMARK H PARENT 5 2 3 9 21 16 7 26 15 34 14 36 14 37
ROOT
ATOM      1  N   UNL     1       0.611  -6.906  14.601  1.00  0.00    -0.255 NA
ATOM      2  H   UNL     1       1.601  -7.126  14.783  1.00  0.00     0.129 HD
ENDROOT
BRANCH   1   3
ATOM      3  C   UNL     1      -0.114  -7.853  15.298  1.00  0.00     0.185 C 
ATOM      4  C   UNL     1      -1.061  -9.821  15.652  1.00  0.00     0.066 C 
ATOM      5  C   UNL     1      -1.401  -9.224  16.862  1.00  0.00     0.069 C 
ATOM      6  N   UNL     1      -0.329  -9.036  14.783  1.00  0.00    -0.290 NA
ATOM      7  S   UNL     1      -0.788  -7.587  16.867  1.00  0.00    -0.122 SA
ATOM      8  C   UNL     1      -1.398 -11.216  15.237  1.00  0.00     0.025 C 
ATOM      9  H   UNL     1       0.574  -9.493  14.596  1.00  0.00     0.125 HD
BRANCH   5  10
ATOM     10  C   UNL     1      -2.151  -9.661  18.060  1.00  0.00     0.006 C 
ATOM     11  C   UNL     1      -3.283 -10.461  17.955  1.00  0.00     0.020 C 
ATOM     12  C   UNL     1      -1.706  -9.293  19.326  1.00  0.00     0.024 C 
ATOM     13  C   UNL     1      -3.949 -10.819  19.106  1.00  0.00     0.081 C 
ATOM     14  C   UNL     1      -2.440  -9.723  20.441  1.00  0.00     0.068 C 
ATOM     15  N   UNL     1      -3.556 -10.458  20.336  1.00  0.00    -0.313 NA
ATOM     16  H   UNL     1      -4.323  -9.916  20.758  1.00  0.00     0.122 HD
BRANCH  14  17
ATOM     17  C   UNL     1      -1.967  -9.408  21.881  1.00  0.00     0.076 C 
ATOM     18  C   UNL     1      -0.974  -8.235  21.897  1.00  0.00     0.022 C 
ATOM     19  C   UNL     1      -3.175  -9.077  22.776  1.00  0.00     0.022 C 
BRANCH  17  20
ATOM     20  C   UNL     1      -1.202 -10.702  22.517  1.00  0.00     0.395 C 
ATOM     21  F   UNL     1      -0.105 -10.322  23.171  1.00  0.00    -0.170 F 
ATOM     22  F   UNL     1      -1.954 -11.378  23.378  1.00  0.00    -0.170 F 
ATOM     23  F   UNL     1      -0.831 -11.569  21.580  1.00  0.00    -0.170 F 
ENDBRANCH  17  20
ENDBRANCH  14  17
ENDBRANCH   5  10
ENDBRANCH   1   3
BRANCH   1  24
ATOM     24  C   UNL     1       0.519  -6.698  13.217  1.00  0.00     0.261 C 
BRANCH  24  25
ATOM     25  O   UNL     1      -0.319  -5.951  12.734  1.00  0.00    -0.365 OA
ATOM     26  H   UNL     1      -0.610  -5.296  13.417  1.00  0.00     0.214 HD
ENDBRANCH  24  25
BRANCH  24  27
ATOM     27  N   UNL     1       1.416  -7.373  12.411  1.00  0.00    -0.259 NA
ATOM     28  C   UNL     1       2.762  -6.819  12.185  1.00  0.00     0.104 C 
ATOM     29  C   UNL     1       1.209  -8.651  11.713  1.00  0.00     0.089 C 
ATOM     30  C   UNL     1       3.463  -7.896  11.343  1.00  0.00     0.025 C 
ATOM     31  C   UNL     1       2.347  -8.698  10.716  1.00  0.00     0.017 C 
BRANCH  28  32
ATOM     32  C   UNL     1       2.753  -5.456  11.490  1.00  0.00     0.197 C 
BRANCH  32  33
ATOM     33  O   UNL     1       3.002  -5.372  10.284  1.00  0.00    -0.377 OA
ATOM     34  H   UNL     1       2.956  -6.272   9.874  1.00  0.00     0.212 HD
ENDBRANCH  32  33
BRANCH  32  35
ATOM     35  N   UNL     1       2.543  -4.399  12.257  1.00  0.00    -0.305 NA
ATOM     36  H   UNL     1       2.852  -4.605  13.217  1.00  0.00     0.121 HD
ATOM     37  H   UNL     1       3.074  -3.596  11.890  1.00  0.00     0.121 HD
ENDBRANCH  32  35
ENDBRANCH  28  32
ENDBRANCH  24  27
ENDBRANCH   1  24
TORSDOF 10
ENDMDL
MODEL 11
REMARK VINA RESULT:    -7.713      3.589      5.444
REMARK INTER + INTRA:         -12.736
REMARK INTER:                 -12.091
REMARK INTRA:                  -0.645
REMARK UNBOUND:                -1.190
REMARK SMILES C[C@H]1N[C@@H](N[C@@H](O)N2CCC[C@H]2[C@@H](N)O)S[C@@H]1[C@H]1CCN[C@H](C(C)(C)C(F)(F)F)C1
REMARK SMILES IDX 5 1 4 3 2 4 17 5 3 6 16 7 1 8 18 10 19 11 30 12 20 13 22 14
REMARK SMILES IDX 21 15 23 17 24 18 25 19 26 20 27 21 28 22 29 23 6 24 7 25
REMARK SMILES IDX 8 27 12 28 9 29 11 30 10 31 13 32 15 33 14 35
REMARK H PARENT 5 2 3 9 21 16 7 26 15 34 14 36 14 37
ROOT
ATOM      1  N   UNL     1       1.339  -7.493  11.345  1.00  0.00    -0.255 NA
ATOM      2  H   UNL     1       2.312  -7.157  11.348  1.00  0.00     0.129 HD
ENDROOT
BRANCH   1   3
ATOM      3  C   UNL     1       0.971  -7.577  12.675  1.00  0.00     0.185 C 
ATOM      4  C   UNL     1       1.066  -7.108  14.835  1.00  0.00     0.066 C 
ATOM      5  C   UNL     1      -0.011  -7.989  14.877  1.00  0.00     0.069 C 
ATOM      6  N   UNL     1       1.604  -6.881  13.584  1.00  0.00    -0.290 NA
ATOM      7  S   UNL     1      -0.317  -8.571  13.258  1.00  0.00    -0.122 SA
ATOM      8  C   UNL     1       1.656  -6.389  16.004  1.00  0.00     0.025 C 
ATOM      9  H   UNL     1       1.525  -5.879  13.359  1.00  0.00     0.125 HD
BRANCH   5  10
ATOM     10  C   UNL     1      -0.878  -8.517  15.953  1.00  0.00     0.006 C 
ATOM     11  C   UNL     1      -1.222  -7.740  17.053  1.00  0.00     0.020 C 
ATOM     12  C   UNL     1      -1.389  -9.808  15.858  1.00  0.00     0.024 C 
ATOM     13  C   UNL     1      -2.018  -8.296  18.031  1.00  0.00     0.081 C 
ATOM     14  C   UNL     1      -2.207 -10.279  16.895  1.00  0.00     0.068 C 
ATOM     15  N   UNL     1      -2.503  -9.545  17.976  1.00  0.00    -0.313 NA
ATOM     16  H   UNL     1      -2.147 -10.050  18.799  1.00  0.00     0.122 HD
BRANCH  14  17
ATOM     17  C   UNL     1      -2.864 -11.679  16.824  1.00  0.00     0.076 C 
ATOM     18  C   UNL     1      -1.802 -12.791  16.789  1.00  0.00     0.022 C 
ATOM     19  C   UNL     1      -3.795 -11.890  18.030  1.00  0.00     0.022 C 
BRANCH  17  20
ATOM     20  C   UNL     1      -3.754 -11.813  15.463  1.00  0.00     0.395 C 
ATOM     21  F   UNL     1      -4.853 -11.064  15.547  1.00  0.00    -0.170 F 
ATOM     22  F   UNL     1      -3.101 -11.423  14.375  1.00  0.00    -0.170 F 
ATOM     23  F   UNL     1      -4.139 -13.065  15.242  1.00  0.00    -0.170 F 
ENDBRANCH  17  20
ENDBRANCH  14  17
ENDBRANCH   5  10
ENDBRANCH   1   3
BRANCH   1  24
ATOM     24  C   UNL     1       1.313  -8.569  10.446  1.00  0.00     0.261 C 
BRANCH  24  25
ATOM     25  O   UNL     1       0.262  -9.052  10.052  1.00  0.00    -0.365 OA
ATOM     26  H   UNL     1       0.214 -10.003  10.324  1.00  0.00     0.214 HD
ENDBRANCH  24  25
BRANCH  24  27
ATOM     27  N   UNL     1       2.528  -9.067  10.017  1.00  0.00    -0.259 NA
ATOM     28  C   UNL     1       3.401  -8.244   9.165  1.00  0.00     0.104 C 
ATOM     29  C   UNL     1       3.115 -10.383  10.319  1.00  0.00     0.089 C 
ATOM     30  C   UNL     1       4.667  -9.100   9.003  1.00  0.00     0.025 C 
ATOM     31  C   UNL     1       4.230 -10.514   9.304  1.00  0.00     0.017 C 
BRANCH  28  32
ATOM     32  C   UNL     1       2.774  -7.879   7.818  1.00  0.00     0.197 C 
BRANCH  32  33
ATOM     33  O   UNL     1       2.408  -8.767   7.042  1.00  0.00    -0.377 OA
ATOM     34  H   UNL     1       3.106  -9.467   6.989  1.00  0.00     0.212 HD
ENDBRANCH  32  33
BRANCH  32  35
ATOM     35  N   UNL     1       2.719  -6.592   7.517  1.00  0.00    -0.305 NA
ATOM     36  H   UNL     1       3.469  -6.363   6.850  1.00  0.00     0.121 HD
ATOM     37  H   UNL     1       1.805  -6.376   7.094  1.00  0.00     0.121 HD
ENDBRANCH  32  35
ENDBRANCH  28  32
ENDBRANCH  24  27
ENDBRANCH   1  24
TORSDOF 10
ENDMDL
MODEL 12
REMARK VINA RESULT:    -7.657      2.644      3.942
REMARK INTER + INTRA:         -12.653
REMARK INTER:                 -11.618
REMARK INTRA:                  -1.035
REMARK UNBOUND:                -1.190
REMARK SMILES C[C@H]1N[C@@H](N[C@@H](O)N2CCC[C@H]2[C@@H](N)O)S[C@@H]1[C@H]1CCN[C@H](C(C)(C)C(F)(F)F)C1
REMARK SMILES IDX 5 1 4 3 2 4 17 5 3 6 16 7 1 8 18 10 19 11 30 12 20 13 22 14
REMARK SMILES IDX 21 15 23 17 24 18 25 19 26 20 27 21 28 22 29 23 6 24 7 25
REMARK SMILES IDX 8 27 12 28 9 29 11 30 10 31 13 32 15 33 14 35
REMARK H PARENT 5 2 3 9 21 16 7 26 15 34 14 36 14 37
ROOT
ATOM      1  N   UNL     1       0.442  -7.963  14.040  1.00  0.00    -0.255 NA
ATOM      2  H   UNL     1      -0.245  -8.632  13.665  1.00  0.00     0.129 HD
ENDROOT
BRANCH   1   3
ATOM      3  C   UNL     1      -0.049  -7.578  15.273  1.00  0.00     0.185 C 
ATOM      4  C   UNL     1      -0.603  -6.158  16.877  1.00  0.00     0.066 C 
ATOM      5  C   UNL     1      -1.021  -7.328  17.503  1.00  0.00     0.069 C 
ATOM      6  N   UNL     1      -0.063  -6.315  15.616  1.00  0.00    -0.290 NA
ATOM      7  S   UNL     1      -0.673  -8.678  16.449  1.00  0.00    -0.122 SA
ATOM      8  C   UNL     1      -0.712  -4.777  17.437  1.00  0.00     0.025 C 
ATOM      9  H   UNL     1      -0.630  -5.787  14.938  1.00  0.00     0.125 HD
BRANCH   5  10
ATOM     10  C   UNL     1      -1.638  -7.643  18.811  1.00  0.00     0.006 C 
ATOM     11  C   UNL     1      -2.077  -6.637  19.665  1.00  0.00     0.020 C 
ATOM     12  C   UNL     1      -1.813  -8.969  19.192  1.00  0.00     0.024 C 
ATOM     13  C   UNL     1      -2.625  -6.993  20.877  1.00  0.00     0.081 C 
ATOM     14  C   UNL     1      -2.401  -9.233  20.438  1.00  0.00     0.068 C 
ATOM     15  N   UNL     1      -2.784  -8.263  21.279  1.00  0.00    -0.313 NA
ATOM     16  H   UNL     1      -2.247  -8.379  22.150  1.00  0.00     0.122 HD
BRANCH  14  17
ATOM     17  C   UNL     1      -2.688 -10.683  20.897  1.00  0.00     0.076 C 
ATOM     18  C   UNL     1      -1.539 -11.627  20.509  1.00  0.00     0.022 C 
ATOM     19  C   UNL     1      -2.900 -10.725  22.421  1.00  0.00     0.022 C 
BRANCH  17  20
ATOM     20  C   UNL     1      -4.042 -11.242  20.178  1.00  0.00     0.395 C 
ATOM     21  F   UNL     1      -3.820 -11.483  18.887  1.00  0.00    -0.170 F 
ATOM     22  F   UNL     1      -4.485 -12.373  20.714  1.00  0.00    -0.170 F 
ATOM     23  F   UNL     1      -5.042 -10.371  20.257  1.00  0.00    -0.170 F 
ENDBRANCH  17  20
ENDBRANCH  14  17
ENDBRANCH   5  10
ENDBRANCH   1   3
BRANCH   1  24
ATOM     24  C   UNL     1       0.724  -7.080  12.987  1.00  0.00     0.261 C 
BRANCH  24  25
ATOM     25  O   UNL     1      -0.007  -6.136  12.727  1.00  0.00    -0.365 OA
ATOM     26  H   UNL     1       0.209  -5.377  13.326  1.00  0.00     0.214 HD
ENDBRANCH  24  25
BRANCH  24  27
ATOM     27  N   UNL     1       1.868  -7.317  12.249  1.00  0.00    -0.259 NA
ATOM     28  C   UNL     1       1.762  -7.850  10.880  1.00  0.00     0.104 C 
ATOM     29  C   UNL     1       3.263  -7.089  12.657  1.00  0.00     0.089 C 
ATOM     30  C   UNL     1       3.216  -7.868  10.382  1.00  0.00     0.025 C 
ATOM     31  C   UNL     1       4.063  -7.863  11.633  1.00  0.00     0.017 C 
BRANCH  28  32
ATOM     32  C   UNL     1       1.109  -9.232  10.810  1.00  0.00     0.197 C 
BRANCH  32  33
ATOM     33  O   UNL     1       1.776 -10.246  11.035  1.00  0.00    -0.377 OA
ATOM     34  H   UNL     1       2.515 -10.306  10.379  1.00  0.00     0.212 HD
ENDBRANCH  32  33
BRANCH  32  35
ATOM     35  N   UNL     1      -0.158  -9.271  10.432  1.00  0.00    -0.305 NA
ATOM     36  H   UNL     1      -0.312  -8.589   9.676  1.00  0.00     0.121 HD
ATOM     37  H   UNL     1      -0.386 -10.217  10.093  1.00  0.00     0.121 HD
ENDBRANCH  32  35
ENDBRANCH  28  32
ENDBRANCH  24  27
ENDBRANCH   1  24
TORSDOF 10
ENDMDL
MODEL 13
REMARK VINA RESULT:    -7.639      2.152      3.054
REMARK INTER + INTRA:         -12.626
REMARK INTER:                 -11.805
REMARK INTRA:                  -0.821
REMARK UNBOUND:                -1.190
REMARK SMILES C[C@H]1N[C@@H](N[C@@H](O)N2CCC[C@H]2[C@@H](N)O)S[C@@H]1[C@H]1CCN[C@H](C(C)(C)C(F)(F)F)C1
REMARK SMILES IDX 5 1 4 3 2 4 17 5 3 6 16 7 1 8 18 10 19 11 30 12 20 13 22 14
REMARK SMILES IDX 21 15 23 17 24 18 25 19 26 20 27 21 28 22 29 23 6 24 7 25
REMARK SMILES IDX 8 27 12 28 9 29 11 30 10 31 13 32 15 33 14 35
REMARK H PARENT 5 2 3 9 21 16 7 26 15 34 14 36 14 37
ROOT
ATOM      1  N   UNL     1       0.533  -8.163  13.766  1.00  0.00    -0.255 NA
ATOM      2  H   UNL     1       1.483  -8.434  14.057  1.00  0.00     0.129 HD
ENDROOT
BRANCH   1   3
ATOM      3  C   UNL     1      -0.278  -8.428  14.853  1.00  0.00     0.185 C 
ATOM      4  C   UNL     1      -1.374  -7.971  16.720  1.00  0.00     0.066 C 
ATOM      5  C   UNL     1      -1.766  -9.299  16.588  1.00  0.00     0.069 C 
ATOM      6  N   UNL     1      -0.540  -7.492  15.730  1.00  0.00    -0.290 NA
ATOM      7  S   UNL     1      -1.007  -9.964  15.161  1.00  0.00    -0.122 SA
ATOM      8  C   UNL     1      -1.792  -7.038  17.810  1.00  0.00     0.025 C 
ATOM      9  H   UNL     1      -0.999  -6.703  15.254  1.00  0.00     0.125 HD
BRANCH   5  10
ATOM     10  C   UNL     1      -2.622 -10.212  17.377  1.00  0.00     0.006 C 
ATOM     11  C   UNL     1      -3.426 -11.164  16.761  1.00  0.00     0.020 C 
ATOM     12  C   UNL     1      -2.609 -10.144  18.767  1.00  0.00     0.024 C 
ATOM     13  C   UNL     1      -4.215 -11.972  17.549  1.00  0.00     0.081 C 
ATOM     14  C   UNL     1      -3.433 -11.023  19.484  1.00  0.00     0.068 C 
ATOM     15  N   UNL     1      -4.240 -11.912  18.888  1.00  0.00    -0.313 NA
ATOM     16  H   UNL     1      -5.206 -11.688  19.169  1.00  0.00     0.122 HD
BRANCH  14  17
ATOM     17  C   UNL     1      -3.420 -11.049  21.032  1.00  0.00     0.076 C 
ATOM     18  C   UNL     1      -4.258 -12.218  21.576  1.00  0.00     0.022 C 
ATOM     19  C   UNL     1      -1.975 -11.163  21.549  1.00  0.00     0.022 C 
BRANCH  17  20
ATOM     20  C   UNL     1      -4.065  -9.671  21.623  1.00  0.00     0.395 C 
ATOM     21  F   UNL     1      -4.482  -9.850  22.876  1.00  0.00    -0.170 F 
ATOM     22  F   UNL     1      -3.204  -8.661  21.639  1.00  0.00    -0.170 F 
ATOM     23  F   UNL     1      -5.108  -9.265  20.907  1.00  0.00    -0.170 F 
ENDBRANCH  17  20
ENDBRANCH  14  17
ENDBRANCH   5  10
ENDBRANCH   1   3
BRANCH   1  24
ATOM     24  C   UNL     1       0.354  -8.719  12.490  1.00  0.00     0.261 C 
BRANCH  24  25
ATOM     25  O   UNL     1      -0.755  -8.994  12.058  1.00  0.00    -0.365 OA
ATOM     26  H   UNL     1      -0.795  -9.959  11.840  1.00  0.00     0.214 HD
ENDBRANCH  24  25
BRANCH  24  27
ATOM     27  N   UNL     1       1.488  -8.946  11.733  1.00  0.00    -0.259 NA
ATOM     28  C   UNL     1       2.586  -7.966  11.741  1.00  0.00     0.104 C 
ATOM     29  C   UNL     1       1.775 -10.106  10.874  1.00  0.00     0.089 C 
ATOM     30  C   UNL     1       3.672  -8.627  10.877  1.00  0.00     0.025 C 
ATOM     31  C   UNL     1       2.940  -9.641  10.029  1.00  0.00     0.017 C 
BRANCH  28  32
ATOM     32  C   UNL     1       2.182  -6.590  11.208  1.00  0.00     0.197 C 
BRANCH  32  33
ATOM     33  O   UNL     1       1.665  -5.759  11.960  1.00  0.00    -0.377 OA
ATOM     34  H   UNL     1       1.081  -6.222  12.611  1.00  0.00     0.212 HD
ENDBRANCH  32  33
BRANCH  32  35
ATOM     35  N   UNL     1       2.349  -6.383   9.912  1.00  0.00    -0.305 NA
ATOM     36  H   UNL     1       3.210  -6.852   9.597  1.00  0.00     0.121 HD
ATOM     37  H   UNL     1       1.543  -6.764   9.396  1.00  0.00     0.121 HD
ENDBRANCH  32  35
ENDBRANCH  28  32
ENDBRANCH  24  27
ENDBRANCH   1  24
TORSDOF 10
ENDMDL
MODEL 14
REMARK VINA RESULT:    -7.555      2.836      4.136
REMARK INTER + INTRA:         -12.499
REMARK INTER:                 -12.017
REMARK INTRA:                  -0.482
REMARK UNBOUND:                -1.190
REMARK SMILES C[C@H]1N[C@@H](N[C@@H](O)N2CCC[C@H]2[C@@H](N)O)S[C@@H]1[C@H]1CCN[C@H](C(C)(C)C(F)(F)F)C1
REMARK SMILES IDX 5 1 4 3 2 4 17 5 3 6 16 7 1 8 18 10 19 11 30 12 20 13 22 14
REMARK SMILES IDX 21 15 23 17 24 18 25 19 26 20 27 21 28 22 29 23 6 24 7 25
REMARK SMILES IDX 8 27 12 28 9 29 11 30 10 31 13 32 15 33 14 35
REMARK H PARENT 5 2 3 9 21 16 7 26 15 34 14 36 14 37
ROOT
ATOM      1  N   UNL     1       0.667  -8.347  11.918  1.00  0.00    -0.255 NA
ATOM      2  H   UNL     1       1.205  -7.482  12.069  1.00  0.00     0.129 HD
ENDROOT
BRANCH   1   3
ATOM      3  C   UNL     1       0.122  -8.665  13.148  1.00  0.00     0.185 C 
ATOM      4  C   UNL     1      -0.868  -9.951  14.652  1.00  0.00     0.066 C 
ATOM      5  C   UNL     1      -0.697  -8.822  15.447  1.00  0.00     0.069 C 
ATOM      6  N   UNL     1      -0.394  -9.848  13.359  1.00  0.00    -0.290 NA
ATOM      7  S   UNL     1       0.066  -7.576  14.488  1.00  0.00    -0.122 SA
ATOM      8  C   UNL     1      -1.487 -11.241  15.082  1.00  0.00     0.025 C 
ATOM      9  H   UNL     1       0.329 -10.565  13.207  1.00  0.00     0.125 HD
BRANCH   5  10
ATOM     10  C   UNL     1      -1.032  -8.477  16.846  1.00  0.00     0.006 C 
ATOM     11  C   UNL     1      -0.822  -7.198  17.348  1.00  0.00     0.020 C 
ATOM     12  C   UNL     1      -1.596  -9.439  17.679  1.00  0.00     0.024 C 
ATOM     13  C   UNL     1      -1.137  -6.944  18.664  1.00  0.00     0.081 C 
ATOM     14  C   UNL     1      -1.902  -9.080  19.000  1.00  0.00     0.068 C 
ATOM     15  N   UNL     1      -1.660  -7.858  19.495  1.00  0.00    -0.313 NA
ATOM     16  H   UNL     1      -1.005  -7.969  20.282  1.00  0.00     0.122 HD
BRANCH  14  17
ATOM     17  C   UNL     1      -2.592 -10.078  19.961  1.00  0.00     0.076 C 
ATOM     18  C   UNL     1      -1.558 -10.892  20.755  1.00  0.00     0.022 C 
ATOM     19  C   UNL     1      -3.515  -9.324  20.935  1.00  0.00     0.022 C 
BRANCH  17  20
ATOM     20  C   UNL     1      -3.500 -11.137  19.114  1.00  0.00     0.395 C 
ATOM     21  F   UNL     1      -2.729 -12.060  18.541  1.00  0.00    -0.170 F 
ATOM     22  F   UNL     1      -4.384 -11.781  19.868  1.00  0.00    -0.170 F 
ATOM     23  F   UNL     1      -4.193 -10.538  18.151  1.00  0.00    -0.170 F 
ENDBRANCH  17  20
ENDBRANCH  14  17
ENDBRANCH   5  10
ENDBRANCH   1   3
BRANCH   1  24
ATOM     24  C   UNL     1       1.509  -9.193  11.182  1.00  0.00     0.261 C 
BRANCH  24  25
ATOM     25  O   UNL     1       1.200 -10.349  10.933  1.00  0.00    -0.365 OA
ATOM     26  H   UNL     1       1.133 -10.862  11.778  1.00  0.00     0.214 HD
ENDBRANCH  24  25
BRANCH  24  27
ATOM     27  N   UNL     1       2.710  -8.669  10.743  1.00  0.00    -0.259 NA
ATOM     28  C   UNL     1       3.135  -8.872   9.349  1.00  0.00     0.104 C 
ATOM     29  C   UNL     1       3.679  -7.878  11.518  1.00  0.00     0.089 C 
ATOM     30  C   UNL     1       4.438  -8.063   9.243  1.00  0.00     0.025 C 
ATOM     31  C   UNL     1       4.928  -7.913  10.664  1.00  0.00     0.017 C 
BRANCH  28  32
ATOM     32  C   UNL     1       3.337 -10.343   8.979  1.00  0.00     0.197 C 
BRANCH  32  33
ATOM     33  O   UNL     1       3.822 -11.130   9.798  1.00  0.00    -0.377 OA
ATOM     34  H   UNL     1       4.374 -10.628  10.449  1.00  0.00     0.212 HD
ENDBRANCH  32  33
BRANCH  32  35
ATOM     35  N   UNL     1       3.037 -10.690   7.738  1.00  0.00    -0.305 NA
ATOM     36  H   UNL     1       3.900 -10.755   7.181  1.00  0.00     0.121 HD
ATOM     37  H   UNL     1       2.561 -11.604   7.742  1.00  0.00     0.121 HD
ENDBRANCH  32  35
ENDBRANCH  28  32
ENDBRANCH  24  27
ENDBRANCH   1  24
TORSDOF 10
ENDMDL
MODEL 15
REMARK VINA RESULT:    -7.428      2.330      4.122
REMARK INTER + INTRA:         -12.309
REMARK INTER:                 -11.248
REMARK INTRA:                  -1.061
REMARK UNBOUND:                -1.190
REMARK SMILES C[C@H]1N[C@@H](N[C@@H](O)N2CCC[C@H]2[C@@H](N)O)S[C@@H]1[C@H]1CCN[C@H](C(C)(C)C(F)(F)F)C1
REMARK SMILES IDX 5 1 4 3 2 4 17 5 3 6 16 7 1 8 18 10 19 11 30 12 20 13 22 14
REMARK SMILES IDX 21 15 23 17 24 18 25 19 26 20 27 21 28 22 29 23 6 24 7 25
REMARK SMILES IDX 8 27 12 28 9 29 11 30 10 31 13 32 15 33 14 35
REMARK H PARENT 5 2 3 9 21 16 7 26 15 34 14 36 14 37
ROOT
ATOM      1  N   UNL     1       0.339  -7.082  13.596  1.00  0.00    -0.255 NA
ATOM      2  H   UNL     1      -0.564  -7.229  13.124  1.00  0.00     0.129 HD
ENDROOT
BRANCH   1   3
ATOM      3  C   UNL     1       0.027  -6.711  14.890  1.00  0.00     0.185 C 
ATOM      4  C   UNL     1      -0.504  -5.317  16.523  1.00  0.00     0.066 C 
ATOM      5  C   UNL     1      -0.518  -6.494  17.264  1.00  0.00     0.069 C 
ATOM      6  N   UNL     1      -0.201  -5.457  15.184  1.00  0.00    -0.290 NA
ATOM      7  S   UNL     1      -0.093  -7.821  16.209  1.00  0.00    -0.122 SA
ATOM      8  C   UNL     1      -0.805  -3.949  17.045  1.00  0.00     0.025 C 
ATOM      9  H   UNL     1      -0.993  -5.116  14.621  1.00  0.00     0.125 HD
BRANCH   5  10
ATOM     10  C   UNL     1      -0.780  -6.826  18.682  1.00  0.00     0.006 C 
ATOM     11  C   UNL     1      -0.468  -5.936  19.704  1.00  0.00     0.020 C 
ATOM     12  C   UNL     1      -1.378  -8.039  19.010  1.00  0.00     0.024 C 
ATOM     13  C   UNL     1      -0.719  -6.311  21.005  1.00  0.00     0.081 C 
ATOM     14  C   UNL     1      -1.612  -8.323  20.363  1.00  0.00     0.068 C 
ATOM     15  N   UNL     1      -1.271  -7.483  21.350  1.00  0.00    -0.313 NA
ATOM     16  H   UNL     1      -0.598  -7.974  21.955  1.00  0.00     0.122 HD
BRANCH  14  17
ATOM     17  C   UNL     1      -2.333  -9.622  20.796  1.00  0.00     0.076 C 
ATOM     18  C   UNL     1      -3.438  -9.330  21.824  1.00  0.00     0.022 C 
ATOM     19  C   UNL     1      -2.939 -10.326  19.570  1.00  0.00     0.022 C 
BRANCH  17  20
ATOM     20  C   UNL     1      -1.273 -10.645  21.499  1.00  0.00     0.395 C 
ATOM     21  F   UNL     1      -1.387 -11.867  20.979  1.00  0.00    -0.170 F 
ATOM     22  F   UNL     1      -0.008 -10.272  21.339  1.00  0.00    -0.170 F 
ATOM     23  F   UNL     1      -1.473 -10.746  22.808  1.00  0.00    -0.170 F 
ENDBRANCH  17  20
ENDBRANCH  14  17
ENDBRANCH   5  10
ENDBRANCH   1   3
BRANCH   1  24
ATOM     24  C   UNL     1       1.106  -6.308  12.712  1.00  0.00     0.261 C 
BRANCH  24  25
ATOM     25  O   UNL     1       0.883  -5.118  12.541  1.00  0.00    -0.365 OA
ATOM     26  H   UNL     1       1.605  -4.584  12.959  1.00  0.00     0.214 HD
ENDBRANCH  24  25
BRANCH  24  27
ATOM     27  N   UNL     1       2.130  -6.943  12.037  1.00  0.00    -0.259 NA
ATOM     28  C   UNL     1       1.828  -7.788  10.869  1.00  0.00     0.104 C 
ATOM     29  C   UNL     1       3.571  -6.882  12.330  1.00  0.00     0.089 C 
ATOM     30  C   UNL     1       3.214  -8.211  10.357  1.00  0.00     0.025 C 
ATOM     31  C   UNL     1       4.143  -8.036  11.535  1.00  0.00     0.017 C 
BRANCH  28  32
ATOM     32  C   UNL     1       0.942  -8.990  11.198  1.00  0.00     0.197 C 
BRANCH  32  33
ATOM     33  O   UNL     1       1.231  -9.739  12.136  1.00  0.00    -0.377 OA
ATOM     34  H   UNL     1       0.453  -9.826  12.741  1.00  0.00     0.212 HD
ENDBRANCH  32  33
BRANCH  32  35
ATOM     35  N   UNL     1      -0.082  -9.212  10.390  1.00  0.00    -0.305 NA
ATOM     36  H   UNL     1      -0.645  -9.993  10.755  1.00  0.00     0.121 HD
ATOM     37  H   UNL     1      -0.666  -8.365  10.335  1.00  0.00     0.121 HD
ENDBRANCH  32  35
ENDBRANCH  28  32
ENDBRANCH  24  27
ENDBRANCH   1  24
TORSDOF 10
ENDMDL
MODEL 16
REMARK VINA RESULT:    -7.421      1.845      2.663
REMARK INTER + INTRA:         -12.298
REMARK INTER:                 -11.240
REMARK INTRA:                  -1.058
REMARK UNBOUND:                -1.190
REMARK SMILES C[C@H]1N[C@@H](N[C@@H](O)N2CCC[C@H]2[C@@H](N)O)S[C@@H]1[C@H]1CCN[C@H](C(C)(C)C(F)(F)F)C1
REMARK SMILES IDX 5 1 4 3 2 4 17 5 3 6 16 7 1 8 18 10 19 11 30 12 20 13 22 14
REMARK SMILES IDX 21 15 23 17 24 18 25 19 26 20 27 21 28 22 29 23 6 24 7 25
REMARK SMILES IDX 8 27 12 28 9 29 11 30 10 31 13 32 15 33 14 35
REMARK H PARENT 5 2 3 9 21 16 7 26 15 34 14 36 14 37
ROOT
ATOM      1  N   UNL     1       0.572  -6.211  14.804  1.00  0.00    -0.255 NA
ATOM      2  H   UNL     1       1.518  -6.246  15.210  1.00  0.00     0.129 HD
ENDROOT
BRANCH   1   3
ATOM      3  C   UNL     1      -0.080  -7.332  15.282  1.00  0.00     0.185 C 
ATOM      4  C   UNL     1      -0.783  -9.429  15.256  1.00  0.00     0.066 C 
ATOM      5  C   UNL     1      -1.307  -9.067  16.493  1.00  0.00     0.069 C 
ATOM      6  N   UNL     1      -0.088  -8.441  14.588  1.00  0.00    -0.290 NA
ATOM      7  S   UNL     1      -0.922  -7.388  16.789  1.00  0.00    -0.122 SA
ATOM      8  C   UNL     1      -0.891 -10.777  14.619  1.00  0.00     0.025 C 
ATOM      9  H   UNL     1       0.882  -8.753  14.439  1.00  0.00     0.125 HD
BRANCH   5  10
ATOM     10  C   UNL     1      -2.096  -9.766  17.531  1.00  0.00     0.006 C 
ATOM     11  C   UNL     1      -3.072 -10.697  17.195  1.00  0.00     0.020 C 
ATOM     12  C   UNL     1      -1.845  -9.514  18.876  1.00  0.00     0.024 C 
ATOM     13  C   UNL     1      -3.786 -11.300  18.207  1.00  0.00     0.081 C 
ATOM     14  C   UNL     1      -2.611 -10.193  19.835  1.00  0.00     0.068 C 
ATOM     15  N   UNL     1      -3.581 -11.058  19.509  1.00  0.00    -0.313 NA
ATOM     16  H   UNL     1      -4.463 -10.694  19.897  1.00  0.00     0.122 HD
BRANCH  14  17
ATOM     17  C   UNL     1      -2.342 -10.013  21.349  1.00  0.00     0.076 C 
ATOM     18  C   UNL     1      -2.058  -8.541  21.693  1.00  0.00     0.022 C 
ATOM     19  C   UNL     1      -3.547 -10.512  22.165  1.00  0.00     0.022 C 
BRANCH  17  20
ATOM     20  C   UNL     1      -1.032 -10.878  21.793  1.00  0.00     0.395 C 
ATOM     21  F   UNL     1      -0.997 -12.041  21.144  1.00  0.00    -0.170 F 
ATOM     22  F   UNL     1       0.113 -10.255  21.535  1.00  0.00    -0.170 F 
ATOM     23  F   UNL     1      -1.030 -11.145  23.094  1.00  0.00    -0.170 F 
ENDBRANCH  17  20
ENDBRANCH  14  17
ENDBRANCH   5  10
ENDBRANCH   1   3
BRANCH   1  24
ATOM     24  C   UNL     1       0.755  -5.919  13.444  1.00  0.00     0.261 C 
BRANCH  24  25
ATOM     25  O   UNL     1      -0.153  -6.037  12.634  1.00  0.00    -0.365 OA
ATOM     26  H   UNL     1       0.064  -6.766  12.000  1.00  0.00     0.214 HD
ENDBRANCH  24  25
BRANCH  24  27
ATOM     27  N   UNL     1       2.007  -5.490  13.050  1.00  0.00    -0.259 NA
ATOM     28  C   UNL     1       3.200  -5.910  13.804  1.00  0.00     0.104 C 
ATOM     29  C   UNL     1       2.341  -4.627  11.905  1.00  0.00     0.089 C 
ATOM     30  C   UNL     1       4.368  -5.320  12.999  1.00  0.00     0.025 C 
ATOM     31  C   UNL     1       3.764  -4.198  12.188  1.00  0.00     0.017 C 
BRANCH  28  32
ATOM     32  C   UNL     1       3.202  -5.435  15.259  1.00  0.00     0.197 C 
BRANCH  32  33
ATOM     33  O   UNL     1       2.963  -4.255  15.528  1.00  0.00    -0.377 OA
ATOM     34  H   UNL     1       1.984  -4.107  15.519  1.00  0.00     0.212 HD
ENDBRANCH  32  33
BRANCH  32  35
ATOM     35  N   UNL     1       3.541  -6.328  16.174  1.00  0.00    -0.305 NA
ATOM     36  H   UNL     1       4.566  -6.348  16.271  1.00  0.00     0.121 HD
ATOM     37  H   UNL     1       3.116  -6.073  17.077  1.00  0.00     0.121 HD
ENDBRANCH  32  35
ENDBRANCH  28  32
ENDBRANCH  24  27
ENDBRANCH   1  24
TORSDOF 10
ENDMDL
MODEL 17
REMARK VINA RESULT:    -7.419      3.794      5.619
REMARK INTER + INTRA:         -12.295
REMARK INTER:                 -10.878
REMARK INTRA:                  -1.417
REMARK UNBOUND:                -1.190
REMARK SMILES C[C@H]1N[C@@H](N[C@@H](O)N2CCC[C@H]2[C@@H](N)O)S[C@@H]1[C@H]1CCN[C@H](C(C)(C)C(F)(F)F)C1
REMARK SMILES IDX 5 1 4 3 2 4 17 5 3 6 16 7 1 8 18 10 19 11 30 12 20 13 22 14
REMARK SMILES IDX 21 15 23 17 24 18 25 19 26 20 27 21 28 22 29 23 6 24 7 25
REMARK SMILES IDX 8 27 12 28 9 29 11 30 10 31 13 32 15 33 14 35
REMARK H PARENT 5 2 3 9 21 16 7 26 15 34 14 36 14 37
ROOT
ATOM      1  N   UNL     1       2.646  -6.436  12.084  1.00  0.00    -0.255 NA
ATOM      2  H   UNL     1       3.148  -5.546  12.218  1.00  0.00     0.129 HD
ENDROOT
BRANCH   1   3
ATOM      3  C   UNL     1       2.032  -6.701  13.294  1.00  0.00     0.185 C 
ATOM      4  C   UNL     1       1.798  -6.675  15.493  1.00  0.00     0.066 C 
ATOM      5  C   UNL     1       0.613  -7.333  15.182  1.00  0.00     0.069 C 
ATOM      6  N   UNL     1       2.585  -6.319  14.416  1.00  0.00    -0.290 NA
ATOM      7  S   UNL     1       0.525  -7.532  13.448  1.00  0.00    -0.122 SA
ATOM      8  C   UNL     1       2.265  -6.312  16.866  1.00  0.00     0.025 C 
ATOM      9  H   UNL     1       2.699  -5.296  14.406  1.00  0.00     0.125 HD
BRANCH   5  10
ATOM     10  C   UNL     1      -0.507  -7.887  15.976  1.00  0.00     0.006 C 
ATOM     11  C   UNL     1      -1.262  -7.083  16.823  1.00  0.00     0.020 C 
ATOM     12  C   UNL     1      -0.837  -9.233  15.860  1.00  0.00     0.024 C 
ATOM     13  C   UNL     1      -2.279  -7.661  17.549  1.00  0.00     0.081 C 
ATOM     14  C   UNL     1      -1.903  -9.726  16.626  1.00  0.00     0.068 C 
ATOM     15  N   UNL     1      -2.603  -8.960  17.474  1.00  0.00    -0.313 NA
ATOM     16  H   UNL     1      -2.491  -9.360  18.416  1.00  0.00     0.122 HD
BRANCH  14  17
ATOM     17  C   UNL     1      -2.370 -11.197  16.498  1.00  0.00     0.076 C 
ATOM     18  C   UNL     1      -1.184 -12.134  16.216  1.00  0.00     0.022 C 
ATOM     19  C   UNL     1      -3.086 -11.641  17.785  1.00  0.00     0.022 C 
BRANCH  17  20
ATOM     20  C   UNL     1      -3.415 -11.347  15.254  1.00  0.00     0.395 C 
ATOM     21  F   UNL     1      -4.575 -10.761  15.544  1.00  0.00    -0.170 F 
ATOM     22  F   UNL     1      -2.970 -10.793  14.132  1.00  0.00    -0.170 F 
ATOM     23  F   UNL     1      -3.669 -12.620  14.970  1.00  0.00    -0.170 F 
ENDBRANCH  17  20
ENDBRANCH  14  17
ENDBRANCH   5  10
ENDBRANCH   1   3
BRANCH   1  24
ATOM     24  C   UNL     1       3.558  -7.294  11.453  1.00  0.00     0.261 C 
BRANCH  24  25
ATOM     25  O   UNL     1       4.474  -7.822  12.067  1.00  0.00    -0.365 OA
ATOM     26  H   UNL     1       4.288  -7.779  13.039  1.00  0.00     0.214 HD
ENDBRANCH  24  25
BRANCH  24  27
ATOM     27  N   UNL     1       3.384  -7.524  10.102  1.00  0.00    -0.259 NA
ATOM     28  C   UNL     1       2.046  -7.848   9.578  1.00  0.00     0.104 C 
ATOM     29  C   UNL     1       4.406  -7.479   9.045  1.00  0.00     0.089 C 
ATOM     30  C   UNL     1       2.258  -7.923   8.058  1.00  0.00     0.025 C 
ATOM     31  C   UNL     1       3.738  -8.168   7.876  1.00  0.00     0.017 C 
BRANCH  28  32
ATOM     32  C   UNL     1       1.464  -9.144  10.146  1.00  0.00     0.197 C 
BRANCH  32  33
ATOM     33  O   UNL     1       2.195 -10.117  10.349  1.00  0.00    -0.377 OA
ATOM     34  H   UNL     1       2.541 -10.081  11.276  1.00  0.00     0.212 HD
ENDBRANCH  32  33
BRANCH  32  35
ATOM     35  N   UNL     1       0.154  -9.177  10.327  1.00  0.00    -0.305 NA
ATOM     36  H   UNL     1      -0.053  -9.540  11.268  1.00  0.00     0.121 HD
ATOM     37  H   UNL     1      -0.230  -8.225  10.235  1.00  0.00     0.121 HD
ENDBRANCH  32  35
ENDBRANCH  28  32
ENDBRANCH  24  27
ENDBRANCH   1  24
TORSDOF 10
ENDMDL
MODEL 18
REMARK VINA RESULT:    -7.406      5.505      9.993
REMARK INTER + INTRA:         -12.276
REMARK INTER:                 -11.283
REMARK INTRA:                  -0.993
REMARK UNBOUND:                -1.190
REMARK SMILES C[C@H]1N[C@@H](N[C@@H](O)N2CCC[C@H]2[C@@H](N)O)S[C@@H]1[C@H]1CCN[C@H](C(C)(C)C(F)(F)F)C1
REMARK SMILES IDX 5 1 4 3 2 4 17 5 3 6 16 7 1 8 18 10 19 11 30 12 20 13 22 14
REMARK SMILES IDX 21 15 23 17 24 18 25 19 26 20 27 21 28 22 29 23 6 24 7 25
REMARK SMILES IDX 8 27 12 28 9 29 11 30 10 31 13 32 15 33 14 35
REMARK H PARENT 5 2 3 9 21 16 7 26 15 34 14 36 14 37
ROOT
ATOM      1  N   UNL     1      -1.960  -8.326  24.362  1.00  0.00    -0.255 NA
ATOM      2  H   UNL     1      -0.957  -8.544  24.449  1.00  0.00     0.129 HD
ENDROOT
BRANCH   1   3
ATOM      3  C   UNL     1      -2.311  -8.697  23.078  1.00  0.00     0.185 C 
ATOM      4  C   UNL     1      -3.557  -9.643  21.514  1.00  0.00     0.066 C 
ATOM      5  C   UNL     1      -2.578  -9.109  20.682  1.00  0.00     0.069 C 
ATOM      6  N   UNL     1      -3.396  -9.396  22.862  1.00  0.00    -0.290 NA
ATOM      7  S   UNL     1      -1.392  -8.292  21.673  1.00  0.00    -0.122 SA
ATOM      8  C   UNL     1      -4.751 -10.425  21.072  1.00  0.00     0.025 C 
ATOM      9  H   UNL     1      -4.211  -8.872  23.209  1.00  0.00     0.125 HD
BRANCH   5  10
ATOM     10  C   UNL     1      -2.340  -9.114  19.222  1.00  0.00     0.006 C 
ATOM     11  C   UNL     1      -1.967  -7.958  18.544  1.00  0.00     0.020 C 
ATOM     12  C   UNL     1      -2.463 -10.300  18.505  1.00  0.00     0.024 C 
ATOM     13  C   UNL     1      -1.779  -8.023  17.181  1.00  0.00     0.081 C 
ATOM     14  C   UNL     1      -2.232 -10.270  17.122  1.00  0.00     0.068 C 
ATOM     15  N   UNL     1      -1.914  -9.147  16.464  1.00  0.00    -0.313 NA
ATOM     16  H   UNL     1      -2.652  -8.980  15.765  1.00  0.00     0.122 HD
BRANCH  14  17
ATOM     17  C   UNL     1      -2.284 -11.563  16.273  1.00  0.00     0.076 C 
ATOM     18  C   UNL     1      -1.609 -11.360  14.907  1.00  0.00     0.022 C 
ATOM     19  C   UNL     1      -1.599 -12.719  17.024  1.00  0.00     0.022 C 
BRANCH  17  20
ATOM     20  C   UNL     1      -3.835 -11.987  15.992  1.00  0.00     0.395 C 
ATOM     21  F   UNL     1      -4.492 -12.146  17.140  1.00  0.00    -0.170 F 
ATOM     22  F   UNL     1      -4.501 -11.081  15.285  1.00  0.00    -0.170 F 
ATOM     23  F   UNL     1      -3.923 -13.129  15.318  1.00  0.00    -0.170 F 
ENDBRANCH  17  20
ENDBRANCH  14  17
ENDBRANCH   5  10
ENDBRANCH   1   3
BRANCH   1  24
ATOM     24  C   UNL     1      -2.112  -7.032  24.883  1.00  0.00     0.261 C 
BRANCH  24  25
ATOM     25  O   UNL     1      -1.710  -6.047  24.283  1.00  0.00    -0.365 OA
ATOM     26  H   UNL     1      -0.725  -6.097  24.188  1.00  0.00     0.214 HD
ENDBRANCH  24  25
BRANCH  24  27
ATOM     27  N   UNL     1      -2.738  -6.911  26.109  1.00  0.00    -0.259 NA
ATOM     28  C   UNL     1      -2.047  -6.245  27.225  1.00  0.00     0.104 C 
ATOM     29  C   UNL     1      -4.086  -7.372  26.477  1.00  0.00     0.089 C 
ATOM     30  C   UNL     1      -3.098  -6.225  28.346  1.00  0.00     0.025 C 
ATOM     31  C   UNL     1      -4.079  -7.317  27.989  1.00  0.00     0.017 C 
BRANCH  28  32
ATOM     32  C   UNL     1      -0.758  -6.949  27.654  1.00  0.00     0.197 C 
BRANCH  32  33
ATOM     33  O   UNL     1      -0.598  -8.150  27.419  1.00  0.00    -0.377 OA
ATOM     34  H   UNL     1       0.216  -8.471  27.881  1.00  0.00     0.212 HD
ENDBRANCH  32  33
BRANCH  32  35
ATOM     35  N   UNL     1       0.114  -6.227  28.338  1.00  0.00    -0.305 NA
ATOM     36  H   UNL     1       0.118  -6.535  29.321  1.00  0.00     0.121 HD
ATOM     37  H   UNL     1       1.054  -6.351  27.936  1.00  0.00     0.121 HD
ENDBRANCH  32  35
ENDBRANCH  28  32
ENDBRANCH  24  27
ENDBRANCH   1  24
TORSDOF 10
ENDMDL
MODEL 19
REMARK VINA RESULT:    -7.251      2.576      3.513
REMARK INTER + INTRA:         -12.044
REMARK INTER:                 -10.399
REMARK INTRA:                  -1.645
REMARK UNBOUND:                -1.190
REMARK SMILES C[C@H]1N[C@@H](N[C@@H](O)N2CCC[C@H]2[C@@H](N)O)S[C@@H]1[C@H]1CCN[C@H](C(C)(C)C(F)(F)F)C1
REMARK SMILES IDX 5 1 4 3 2 4 17 5 3 6 16 7 1 8 18 10 19 11 30 12 20 13 22 14
REMARK SMILES IDX 21 15 23 17 24 18 25 19 26 20 27 21 28 22 29 23 6 24 7 25
REMARK SMILES IDX 8 27 12 28 9 29 11 30 10 31 13 32 15 33 14 35
REMARK H PARENT 5 2 3 9 21 16 7 26 15 34 14 36 14 37
ROOT
ATOM      1  N   UNL     1       0.198  -7.784  14.258  1.00  0.00    -0.255 NA
ATOM      2  H   UNL     1      -0.624  -8.328  13.961  1.00  0.00     0.129 HD
ENDROOT
BRANCH   1   3
ATOM      3  C   UNL     1      -0.027  -7.465  15.584  1.00  0.00     0.185 C 
ATOM      4  C   UNL     1       0.186  -6.292  17.448  1.00  0.00     0.066 C 
ATOM      5  C   UNL     1      -0.718  -7.239  17.919  1.00  0.00     0.069 C 
ATOM      6  N   UNL     1       0.561  -6.429  16.126  1.00  0.00    -0.290 NA
ATOM      7  S   UNL     1      -1.069  -8.364  16.628  1.00  0.00    -0.122 SA
ATOM      8  C   UNL     1       0.751  -5.153  18.233  1.00  0.00     0.025 C 
ATOM      9  H   UNL     1       0.293  -5.580  15.609  1.00  0.00     0.125 HD
BRANCH   5  10
ATOM     10  C   UNL     1      -1.382  -7.484  19.219  1.00  0.00     0.006 C 
ATOM     11  C   UNL     1      -2.209  -6.530  19.801  1.00  0.00     0.020 C 
ATOM     12  C   UNL     1      -1.203  -8.702  19.867  1.00  0.00     0.024 C 
ATOM     13  C   UNL     1      -2.783  -6.811  21.022  1.00  0.00     0.081 C 
ATOM     14  C   UNL     1      -1.845  -8.902  21.098  1.00  0.00     0.068 C 
ATOM     15  N   UNL     1      -2.608  -7.967  21.679  1.00  0.00    -0.313 NA
ATOM     16  H   UNL     1      -2.181  -7.742  22.589  1.00  0.00     0.122 HD
BRANCH  14  17
ATOM     17  C   UNL     1      -1.746 -10.256  21.842  1.00  0.00     0.076 C 
ATOM     18  C   UNL     1      -2.964 -10.481  22.752  1.00  0.00     0.022 C 
ATOM     19  C   UNL     1      -1.634 -11.411  20.831  1.00  0.00     0.022 C 
BRANCH  17  20
ATOM     20  C   UNL     1      -0.418 -10.279  22.791  1.00  0.00     0.395 C 
ATOM     21  F   UNL     1       0.669  -9.977  22.082  1.00  0.00    -0.170 F 
ATOM     22  F   UNL     1      -0.482  -9.410  23.793  1.00  0.00    -0.170 F 
ATOM     23  F   UNL     1      -0.220 -11.472  23.339  1.00  0.00    -0.170 F 
ENDBRANCH  17  20
ENDBRANCH  14  17
ENDBRANCH   5  10
ENDBRANCH   1   3
BRANCH   1  24
ATOM     24  C   UNL     1       0.415  -6.842  13.242  1.00  0.00     0.261 C 
BRANCH  24  25
ATOM     25  O   UNL     1      -0.392  -5.956  13.004  1.00  0.00    -0.365 OA
ATOM     26  H   UNL     1      -0.076  -5.419  12.234  1.00  0.00     0.214 HD
ENDBRANCH  24  25
BRANCH  24  27
ATOM     27  N   UNL     1       1.584  -6.952  12.513  1.00  0.00    -0.259 NA
ATOM     28  C   UNL     1       2.884  -6.960  13.205  1.00  0.00     0.104 C 
ATOM     29  C   UNL     1       1.723  -7.080  11.054  1.00  0.00     0.089 C 
ATOM     30  C   UNL     1       3.897  -7.198  12.075  1.00  0.00     0.025 C 
ATOM     31  C   UNL     1       3.185  -6.782  10.809  1.00  0.00     0.017 C 
BRANCH  28  32
ATOM     32  C   UNL     1       3.173  -5.671  13.978  1.00  0.00     0.197 C 
BRANCH  32  33
ATOM     33  O   UNL     1       2.979  -4.572  13.450  1.00  0.00    -0.377 OA
ATOM     34  H   UNL     1       3.476  -3.876  13.948  1.00  0.00     0.212 HD
ENDBRANCH  32  33
BRANCH  32  35
ATOM     35  N   UNL     1       3.700  -5.808  15.184  1.00  0.00    -0.305 NA
ATOM     36  H   UNL     1       4.005  -4.889  15.532  1.00  0.00     0.121 HD
ATOM     37  H   UNL     1       2.994  -6.201  15.824  1.00  0.00     0.121 HD
ENDBRANCH  32  35
ENDBRANCH  28  32
ENDBRANCH  24  27
ENDBRANCH   1  24
TORSDOF 10
ENDMDL
MODEL 20
REMARK VINA RESULT:    -7.152      2.127      3.334
REMARK INTER + INTRA:         -11.895
REMARK INTER:                 -10.504
REMARK INTRA:                  -1.391
REMARK UNBOUND:                -1.190
REMARK SMILES C[C@H]1N[C@@H](N[C@@H](O)N2CCC[C@H]2[C@@H](N)O)S[C@@H]1[C@H]1CCN[C@H](C(C)(C)C(F)(F)F)C1
REMARK SMILES IDX 5 1 4 3 2 4 17 5 3 6 16 7 1 8 18 10 19 11 30 12 20 13 22 14
REMARK SMILES IDX 21 15 23 17 24 18 25 19 26 20 27 21 28 22 29 23 6 24 7 25
REMARK SMILES IDX 8 27 12 28 9 29 11 30 10 31 13 32 15 33 14 35
REMARK H PARENT 5 2 3 9 21 16 7 26 15 34 14 36 14 37
ROOT
ATOM      1  N   UNL     1       1.204  -5.830  15.357  1.00  0.00    -0.255 NA
ATOM      2  H   UNL     1       1.076  -5.269  16.211  1.00  0.00     0.129 HD
ENDROOT
BRANCH   1   3
ATOM      3  C   UNL     1       0.428  -6.960  15.535  1.00  0.00     0.185 C 
ATOM      4  C   UNL     1      -0.505  -8.884  14.970  1.00  0.00     0.066 C 
ATOM      5  C   UNL     1      -0.992  -8.810  16.271  1.00  0.00     0.069 C 
ATOM      6  N   UNL     1       0.300  -7.836  14.572  1.00  0.00    -0.290 NA
ATOM      7  S   UNL     1      -0.423  -7.324  16.994  1.00  0.00    -0.122 SA
ATOM      8  C   UNL     1      -0.760  -9.993  14.000  1.00  0.00     0.025 C 
ATOM      9  H   UNL     1       1.230  -8.200  14.321  1.00  0.00     0.125 HD
BRANCH   5  10
ATOM     10  C   UNL     1      -1.860  -9.670  17.105  1.00  0.00     0.006 C 
ATOM     11  C   UNL     1      -2.652 -10.664  16.541  1.00  0.00     0.020 C 
ATOM     12  C   UNL     1      -1.871  -9.508  18.487  1.00  0.00     0.024 C 
ATOM     13  C   UNL     1      -3.454 -11.419  17.369  1.00  0.00     0.081 C 
ATOM     14  C   UNL     1      -2.706 -10.339  19.249  1.00  0.00     0.068 C 
ATOM     15  N   UNL     1      -3.501 -11.268  18.700  1.00  0.00    -0.313 NA
ATOM     16  H   UNL     1      -4.472 -11.029  18.949  1.00  0.00     0.122 HD
BRANCH  14  17
ATOM     17  C   UNL     1      -2.719 -10.260  20.795  1.00  0.00     0.076 C 
ATOM     18  C   UNL     1      -2.743  -8.801  21.277  1.00  0.00     0.022 C 
ATOM     19  C   UNL     1      -3.940 -11.011  21.354  1.00  0.00     0.022 C 
BRANCH  17  20
ATOM     20  C   UNL     1      -1.372 -10.953  21.403  1.00  0.00     0.395 C 
ATOM     21  F   UNL     1      -1.489 -11.125  22.719  1.00  0.00    -0.170 F 
ATOM     22  F   UNL     1      -1.118 -12.145  20.876  1.00  0.00    -0.170 F 
ATOM     23  F   UNL     1      -0.292 -10.209  21.191  1.00  0.00    -0.170 F 
ENDBRANCH  17  20
ENDBRANCH  14  17
ENDBRANCH   5  10
ENDBRANCH   1   3
BRANCH   1  24
ATOM     24  C   UNL     1       2.586  -5.847  15.119  1.00  0.00     0.261 C 
BRANCH  24  25
ATOM     25  O   UNL     1       3.363  -6.401  15.882  1.00  0.00    -0.365 OA
ATOM     26  H   UNL     1       3.215  -7.380  15.851  1.00  0.00     0.214 HD
ENDBRANCH  24  25
BRANCH  24  27
ATOM     27  N   UNL     1       3.042  -5.211  13.980  1.00  0.00    -0.259 NA
ATOM     28  C   UNL     1       2.564  -5.640  12.656  1.00  0.00     0.104 C 
ATOM     29  C   UNL     1       3.989  -4.087  13.899  1.00  0.00     0.089 C 
ATOM     30  C   UNL     1       3.213  -4.636  11.690  1.00  0.00     0.025 C 
ATOM     31  C   UNL     1       4.394  -4.069  12.442  1.00  0.00     0.017 C 
BRANCH  28  32
ATOM     32  C   UNL     1       2.927  -7.087  12.315  1.00  0.00     0.197 C 
BRANCH  32  33
ATOM     33  O   UNL     1       4.102  -7.463  12.368  1.00  0.00    -0.377 OA
ATOM     34  H   UNL     1       4.182  -8.201  13.023  1.00  0.00     0.212 HD
ENDBRANCH  32  33
BRANCH  32  35
ATOM     35  N   UNL     1       1.941  -7.864  11.899  1.00  0.00    -0.305 NA
ATOM     36  H   UNL     1       2.316  -8.788  11.643  1.00  0.00     0.121 HD
ATOM     37  H   UNL     1       1.247  -7.972  12.652  1.00  0.00     0.121 HD
ENDBRANCH  32  35
ENDBRANCH  28  32
ENDBRANCH  24  27
ENDBRANCH   1  24
TORSDOF 10
ENDMDL
