MODEL 1
REMARK VINA RESULT:   -10.377      0.000      0.000
REMARK INTER + INTRA:         -18.703
REMARK INTER:                 -17.050
REMARK INTRA:                  -1.653
REMARK UNBOUND:                -1.653
REMARK SMILES CCOc1cc2ncc(C#N)c(Nc3ccc(OCc4ccccn4)c(Cl)c3)c2cc1NC(=O)/C=C/CN(C)C
REMARK SMILES IDX 7 1 11 2 29 3 12 4 6 5 30 6 31 7 4 8 5 9 9 10 8 11 10 12
REMARK SMILES IDX 13 13 14 15 26 16 28 17 17 18 16 19 15 20 27 21 18 22 19 23
REMARK SMILES IDX 20 24 25 25 21 26 24 27 22 28 23 29 32 30 33 31 34 32 35 34
REMARK SMILES IDX 36 35 37 36 38 37 39 38 40 39 3 40 2 41 1 42
REMARK H PARENT 13 14 32 33
ROOT
ATOM      1  N   UNL     1     -41.916  47.140  14.537  1.00  0.00    -0.255 NA
ATOM      2  N   UNL     1     -41.209  50.999  11.765  1.00  0.00    -0.192 NA
ATOM      3  C   UNL     1     -40.507  48.536  15.904  1.00  0.00     0.027 A 
ATOM      4  C   UNL     1     -40.486  49.500  14.888  1.00  0.00     0.068 A 
ATOM      5  C   UNL     1     -41.244  47.354  15.684  1.00  0.00     0.076 A 
ATOM      6  C   UNL     1     -39.816  48.727  17.114  1.00  0.00     0.042 A 
ATOM      7  C   UNL     1     -39.853  47.752  18.107  1.00  0.00     0.084 A 
ATOM      8  C   UNL     1     -40.578  46.586  17.896  1.00  0.00     0.144 A 
ATOM      9  C   UNL     1     -41.264  46.397  16.694  1.00  0.00     0.077 A 
ATOM     10  C   UNL     1     -41.179  49.282  13.705  1.00  0.00     0.094 A 
ATOM     11  C   UNL     1     -41.873  48.095  13.581  1.00  0.00     0.133 A 
ATOM     12  C   UNL     1     -41.195  50.230  12.634  1.00  0.00     0.103 C 
ENDROOT
BRANCH   4  13
ATOM     13  N   UNL     1     -39.762  50.710  15.051  1.00  0.00    -0.354 N 
ATOM     14  H   UNL     1     -40.351  51.484  15.342  1.00  0.00     0.167 HD
BRANCH  13  15
ATOM     15  C   UNL     1     -38.405  51.026  14.893  1.00  0.00     0.040 A 
ATOM     16  C   UNL     1     -36.584  52.615  15.067  1.00  0.00     0.085 A 
ATOM     17  C   UNL     1     -37.934  52.302  15.223  1.00  0.00     0.050 A 
ATOM     18  C   UNL     1     -35.697  51.656  14.578  1.00  0.00     0.138 A 
ATOM     19  C   UNL     1     -36.160  50.383  14.246  1.00  0.00     0.050 A 
ATOM     20  C   UNL     1     -37.510  50.069  14.403  1.00  0.00     0.030 A 
ATOM     21  Cl  UNL     1     -36.038  54.197  15.485  1.00  0.00    -0.080 Cl
BRANCH  18  22
ATOM     22  O   UNL     1     -34.372  51.935  14.415  1.00  0.00    -0.486 OA
BRANCH  22  23
ATOM     23  C   UNL     1     -33.542  51.825  15.569  1.00  0.00     0.285 C 
BRANCH  23  24
ATOM     24  C   UNL     1     -32.114  51.688  15.132  1.00  0.00     0.078 A 
ATOM     25  N   UNL     1     -31.325  50.908  15.899  1.00  0.00    -0.258 NA
ATOM     26  C   UNL     1     -31.693  52.351  13.995  1.00  0.00     0.027 A 
ATOM     27  C   UNL     1     -30.040  50.788  15.501  1.00  0.00     0.111 A 
ATOM     28  C   UNL     1     -30.364  52.203  13.616  1.00  0.00     0.004 A 
ATOM     29  C   UNL     1     -29.515  51.408  14.379  1.00  0.00     0.020 A 
ENDBRANCH  23  24
ENDBRANCH  22  23
ENDBRANCH  18  22
ENDBRANCH  13  15
ENDBRANCH   4  13
BRANCH   7  30
ATOM     30  N   UNL     1     -39.160  47.960  19.302  1.00  0.00    -0.319 N 
ATOM     31  C   UNL     1     -39.687  48.286  20.558  1.00  0.00     0.248 C 
ATOM     32  O   UNL     1     -40.867  48.453  20.844  1.00  0.00    -0.270 OA
ATOM     33  H   UNL     1     -38.150  47.856  19.229  1.00  0.00     0.170 HD
BRANCH  31  34
ATOM     34  C   UNL     1     -38.613  48.423  21.586  1.00  0.00     0.068 C 
ATOM     35  C   UNL     1     -37.827  47.381  21.894  1.00  0.00    -0.006 C 
BRANCH  35  36
ATOM     36  C   UNL     1     -36.725  47.454  22.908  1.00  0.00     0.111 C 
BRANCH  36  37
ATOM     37  N   UNL     1     -35.950  46.219  22.946  1.00  0.00    -0.306 NA
ATOM     38  C   UNL     1     -34.990  46.181  21.842  1.00  0.00     0.105 C 
ATOM     39  C   UNL     1     -36.834  45.054  22.891  1.00  0.00     0.105 C 
ENDBRANCH  36  37
ENDBRANCH  35  36
ENDBRANCH  31  34
ENDBRANCH   7  30
BRANCH   8  40
ATOM     40  O   UNL     1     -40.632  45.613  18.849  1.00  0.00    -0.492 OA
BRANCH  40  41
ATOM     41  C   UNL     1     -41.909  45.335  19.419  1.00  0.00     0.226 C 
ATOM     42  C   UNL     1     -41.890  43.945  20.019  1.00  0.00     0.049 C 
ENDBRANCH  40  41
ENDBRANCH   8  40
TORSDOF 11
ENDMDL
MODEL 2
REMARK VINA RESULT:    -9.752      1.716      2.156
REMARK INTER + INTRA:         -17.677
REMARK INTER:                 -15.811
REMARK INTRA:                  -1.866
REMARK UNBOUND:                -1.653
REMARK SMILES CCOc1cc2ncc(C#N)c(Nc3ccc(OCc4ccccn4)c(Cl)c3)c2cc1NC(=O)/C=C/CN(C)C
REMARK SMILES IDX 7 1 11 2 29 3 12 4 6 5 30 6 31 7 4 8 5 9 9 10 8 11 10 12
REMARK SMILES IDX 13 13 14 15 26 16 28 17 17 18 16 19 15 20 27 21 18 22 19 23
REMARK SMILES IDX 20 24 25 25 21 26 24 27 22 28 23 29 32 30 33 31 34 32 35 34
REMARK SMILES IDX 36 35 37 36 38 37 39 38 40 39 3 40 2 41 1 42
REMARK H PARENT 13 14 32 33
ROOT
ATOM      1  N   UNL     1     -43.475  49.544  14.654  1.00  0.00    -0.255 NA
ATOM      2  N   UNL     1     -40.255  50.974  11.388  1.00  0.00    -0.192 NA
ATOM      3  C   UNL     1     -41.378  48.863  15.627  1.00  0.00     0.027 A 
ATOM      4  C   UNL     1     -40.700  49.383  14.517  1.00  0.00     0.068 A 
ATOM      5  C   UNL     1     -42.785  48.966  15.656  1.00  0.00     0.076 A 
ATOM      6  C   UNL     1     -40.689  48.254  16.691  1.00  0.00     0.042 A 
ATOM      7  C   UNL     1     -41.387  47.745  17.782  1.00  0.00     0.084 A 
ATOM      8  C   UNL     1     -42.773  47.844  17.816  1.00  0.00     0.144 A 
ATOM      9  C   UNL     1     -43.457  48.449  16.759  1.00  0.00     0.077 A 
ATOM     10  C   UNL     1     -41.409  49.980  13.483  1.00  0.00     0.094 A 
ATOM     11  C   UNL     1     -42.783  50.034  13.600  1.00  0.00     0.133 A 
ATOM     12  C   UNL     1     -40.772  50.528  12.326  1.00  0.00     0.103 C 
ENDROOT
BRANCH   4  13
ATOM     13  N   UNL     1     -39.285  49.310  14.431  1.00  0.00    -0.354 N 
ATOM     14  H   UNL     1     -38.966  48.530  13.864  1.00  0.00     0.167 HD
BRANCH  13  15
ATOM     15  C   UNL     1     -38.265  50.106  14.971  1.00  0.00     0.040 A 
ATOM     16  C   UNL     1     -37.433  52.274  15.661  1.00  0.00     0.085 A 
ATOM     17  C   UNL     1     -38.450  51.483  15.124  1.00  0.00     0.050 A 
ATOM     18  C   UNL     1     -36.226  51.691  16.048  1.00  0.00     0.138 A 
ATOM     19  C   UNL     1     -36.035  50.318  15.897  1.00  0.00     0.050 A 
ATOM     20  C   UNL     1     -37.051  49.527  15.360  1.00  0.00     0.030 A 
ATOM     21  Cl  UNL     1     -37.696  53.970  15.836  1.00  0.00    -0.080 Cl
BRANCH  18  22
ATOM     22  O   UNL     1     -35.216  52.440  16.575  1.00  0.00    -0.486 OA
BRANCH  22  23
ATOM     23  C   UNL     1     -34.416  53.183  15.659  1.00  0.00     0.285 C 
BRANCH  23  24
ATOM     24  C   UNL     1     -33.088  52.501  15.505  1.00  0.00     0.078 A 
ATOM     25  N   UNL     1     -32.612  52.392  14.248  1.00  0.00    -0.258 NA
ATOM     26  C   UNL     1     -32.440  52.033  16.632  1.00  0.00     0.027 A 
ATOM     27  C   UNL     1     -31.417  51.777  14.116  1.00  0.00     0.111 A 
ATOM     28  C   UNL     1     -31.211  51.406  16.456  1.00  0.00     0.004 A 
ATOM     29  C   UNL     1     -30.683  51.272  15.177  1.00  0.00     0.020 A 
ENDBRANCH  23  24
ENDBRANCH  22  23
ENDBRANCH  18  22
ENDBRANCH  13  15
ENDBRANCH   4  13
BRANCH   7  30
ATOM     30  N   UNL     1     -40.686  47.143  18.829  1.00  0.00    -0.319 N 
ATOM     31  C   UNL     1     -40.465  45.776  19.045  1.00  0.00     0.248 C 
ATOM     32  O   UNL     1     -40.851  44.846  18.347  1.00  0.00    -0.270 OA
ATOM     33  H   UNL     1     -40.296  47.794  19.507  1.00  0.00     0.170 HD
BRANCH  31  34
ATOM     34  C   UNL     1     -39.665  45.537  20.283  1.00  0.00     0.068 C 
ATOM     35  C   UNL     1     -38.330  45.657  20.265  1.00  0.00    -0.006 C 
BRANCH  35  36
ATOM     36  C   UNL     1     -37.470  45.441  21.473  1.00  0.00     0.111 C 
BRANCH  36  37
ATOM     37  N   UNL     1     -36.532  46.541  21.667  1.00  0.00    -0.306 NA
ATOM     38  C   UNL     1     -35.190  46.029  21.946  1.00  0.00     0.105 C 
ATOM     39  C   UNL     1     -36.979  47.414  22.754  1.00  0.00     0.105 C 
ENDBRANCH  36  37
ENDBRANCH  35  36
ENDBRANCH  31  34
ENDBRANCH   7  30
BRANCH   8  40
ATOM     40  O   UNL     1     -43.485  47.354  18.871  1.00  0.00    -0.492 OA
BRANCH  40  41
ATOM     41  C   UNL     1     -44.233  46.161  18.648  1.00  0.00     0.226 C 
ATOM     42  C   UNL     1     -44.545  45.518  19.983  1.00  0.00     0.049 C 
ENDBRANCH  40  41
ENDBRANCH   8  40
TORSDOF 11
ENDMDL
MODEL 3
REMARK VINA RESULT:    -9.066      2.252      3.177
REMARK INTER + INTRA:         -16.548
REMARK INTER:                 -14.754
REMARK INTRA:                  -1.794
REMARK UNBOUND:                -1.653
REMARK SMILES CCOc1cc2ncc(C#N)c(Nc3ccc(OCc4ccccn4)c(Cl)c3)c2cc1NC(=O)/C=C/CN(C)C
REMARK SMILES IDX 7 1 11 2 29 3 12 4 6 5 30 6 31 7 4 8 5 9 9 10 8 11 10 12
REMARK SMILES IDX 13 13 14 15 26 16 28 17 17 18 16 19 15 20 27 21 18 22 19 23
REMARK SMILES IDX 20 24 25 25 21 26 24 27 22 28 23 29 32 30 33 31 34 32 35 34
REMARK SMILES IDX 36 35 37 36 38 37 39 38 40 39 3 40 2 41 1 42
REMARK H PARENT 13 14 32 33
ROOT
ATOM      1  N   UNL     1     -45.383  47.899  16.434  1.00  0.00    -0.255 NA
ATOM      2  N   UNL     1     -44.063  49.776  12.212  1.00  0.00    -0.192 NA
ATOM      3  C   UNL     1     -43.009  47.491  16.379  1.00  0.00     0.027 A 
ATOM      4  C   UNL     1     -42.937  48.107  15.123  1.00  0.00     0.068 A 
ATOM      5  C   UNL     1     -44.269  47.407  17.008  1.00  0.00     0.076 A 
ATOM      6  C   UNL     1     -41.866  46.966  17.007  1.00  0.00     0.042 A 
ATOM      7  C   UNL     1     -41.965  46.358  18.255  1.00  0.00     0.084 A 
ATOM      8  C   UNL     1     -43.203  46.273  18.880  1.00  0.00     0.144 A 
ATOM      9  C   UNL     1     -44.339  46.795  18.256  1.00  0.00     0.077 A 
ATOM     10  C   UNL     1     -44.084  48.616  14.529  1.00  0.00     0.094 A 
ATOM     11  C   UNL     1     -45.271  48.488  15.221  1.00  0.00     0.133 A 
ATOM     12  C   UNL     1     -44.072  49.256  13.250  1.00  0.00     0.103 C 
ENDROOT
BRANCH   4  13
ATOM     13  N   UNL     1     -41.698  48.221  14.441  1.00  0.00    -0.354 N 
ATOM     14  H   UNL     1     -41.605  47.554  13.680  1.00  0.00     0.167 HD
BRANCH  13  15
ATOM     15  C   UNL     1     -40.600  49.075  14.615  1.00  0.00     0.040 A 
ATOM     16  C   UNL     1     -38.536  49.638  15.752  1.00  0.00     0.085 A 
ATOM     17  C   UNL     1     -39.628  48.788  15.579  1.00  0.00     0.050 A 
ATOM     18  C   UNL     1     -38.409  50.782  14.962  1.00  0.00     0.138 A 
ATOM     19  C   UNL     1     -39.376  51.074  14.000  1.00  0.00     0.050 A 
ATOM     20  C   UNL     1     -40.468  50.224  13.827  1.00  0.00     0.030 A 
ATOM     21  Cl  UNL     1     -37.355  49.252  16.949  1.00  0.00    -0.080 Cl
BRANCH  18  22
ATOM     22  O   UNL     1     -37.352  51.630  15.109  1.00  0.00    -0.486 OA
BRANCH  22  23
ATOM     23  C   UNL     1     -36.220  51.402  14.273  1.00  0.00     0.285 C 
BRANCH  23  24
ATOM     24  C   UNL     1     -34.978  51.804  15.012  1.00  0.00     0.078 A 
ATOM     25  N   UNL     1     -33.830  51.792  14.304  1.00  0.00    -0.258 NA
ATOM     26  C   UNL     1     -35.074  52.158  16.344  1.00  0.00     0.027 A 
ATOM     27  C   UNL     1     -32.715  52.156  14.975  1.00  0.00     0.111 A 
ATOM     28  C   UNL     1     -33.906  52.527  17.000  1.00  0.00     0.004 A 
ATOM     29  C   UNL     1     -32.699  52.529  16.308  1.00  0.00     0.020 A 
ENDBRANCH  23  24
ENDBRANCH  22  23
ENDBRANCH  18  22
ENDBRANCH  13  15
ENDBRANCH   4  13
BRANCH   7  30
ATOM     30  N   UNL     1     -40.818  45.842  18.864  1.00  0.00    -0.319 N 
ATOM     31  C   UNL     1     -39.722  46.548  19.376  1.00  0.00     0.248 C 
ATOM     32  O   UNL     1     -39.563  47.763  19.383  1.00  0.00    -0.270 OA
ATOM     33  H   UNL     1     -40.797  44.826  18.934  1.00  0.00     0.170 HD
BRANCH  31  34
ATOM     34  C   UNL     1     -38.694  45.627  19.947  1.00  0.00     0.068 C 
ATOM     35  C   UNL     1     -37.853  46.053  20.900  1.00  0.00    -0.006 C 
BRANCH  35  36
ATOM     36  C   UNL     1     -36.806  45.180  21.522  1.00  0.00     0.111 C 
BRANCH  36  37
ATOM     37  N   UNL     1     -35.942  45.937  22.422  1.00  0.00    -0.306 NA
ATOM     38  C   UNL     1     -36.641  47.115  22.935  1.00  0.00     0.105 C 
ATOM     39  C   UNL     1     -34.710  46.333  21.740  1.00  0.00     0.105 C 
ENDBRANCH  36  37
ENDBRANCH  35  36
ENDBRANCH  31  34
ENDBRANCH   7  30
BRANCH   8  40
ATOM     40  O   UNL     1     -43.332  45.683  20.102  1.00  0.00    -0.492 OA
BRANCH  40  41
ATOM     41  C   UNL     1     -43.613  46.538  21.207  1.00  0.00     0.226 C 
ATOM     42  C   UNL     1     -42.313  46.901  21.892  1.00  0.00     0.049 C 
ENDBRANCH  40  41
ENDBRANCH   8  40
TORSDOF 11
ENDMDL
MODEL 4
REMARK VINA RESULT:    -8.784      2.494      3.270
REMARK INTER + INTRA:         -16.086
REMARK INTER:                 -14.442
REMARK INTRA:                  -1.643
REMARK UNBOUND:                -1.653
REMARK SMILES CCOc1cc2ncc(C#N)c(Nc3ccc(OCc4ccccn4)c(Cl)c3)c2cc1NC(=O)/C=C/CN(C)C
REMARK SMILES IDX 7 1 11 2 29 3 12 4 6 5 30 6 31 7 4 8 5 9 9 10 8 11 10 12
REMARK SMILES IDX 13 13 14 15 26 16 28 17 17 18 16 19 15 20 27 21 18 22 19 23
REMARK SMILES IDX 20 24 25 25 21 26 24 27 22 28 23 29 32 30 33 31 34 32 35 34
REMARK SMILES IDX 36 35 37 36 38 37 39 38 40 39 3 40 2 41 1 42
REMARK H PARENT 13 14 32 33
ROOT
ATOM      1  N   UNL     1     -43.398  49.899  13.704  1.00  0.00    -0.255 NA
ATOM      2  N   UNL     1     -39.536  51.405  11.273  1.00  0.00    -0.192 NA
ATOM      3  C   UNL     1     -41.568  48.969  14.965  1.00  0.00     0.027 A 
ATOM      4  C   UNL     1     -40.662  49.545  14.065  1.00  0.00     0.068 A 
ATOM      5  C   UNL     1     -42.946  49.174  14.744  1.00  0.00     0.076 A 
ATOM      6  C   UNL     1     -41.130  48.206  16.061  1.00  0.00     0.042 A 
ATOM      7  C   UNL     1     -42.052  47.643  16.940  1.00  0.00     0.084 A 
ATOM      8  C   UNL     1     -43.411  47.841  16.728  1.00  0.00     0.144 A 
ATOM      9  C   UNL     1     -43.845  48.600  15.638  1.00  0.00     0.077 A 
ATOM     10  C   UNL     1     -41.125  50.295  12.992  1.00  0.00     0.094 A 
ATOM     11  C   UNL     1     -42.491  50.440  12.859  1.00  0.00     0.133 A 
ATOM     12  C   UNL     1     -40.248  50.908  12.043  1.00  0.00     0.103 C 
ENDROOT
BRANCH   4  13
ATOM     13  N   UNL     1     -39.263  49.375  14.235  1.00  0.00    -0.354 N 
ATOM     14  H   UNL     1     -38.925  48.495  13.856  1.00  0.00     0.167 HD
BRANCH  13  15
ATOM     15  C   UNL     1     -38.276  50.186  14.814  1.00  0.00     0.040 A 
ATOM     16  C   UNL     1     -37.572  52.327  15.701  1.00  0.00     0.085 A 
ATOM     17  C   UNL     1     -38.553  51.522  15.125  1.00  0.00     0.050 A 
ATOM     18  C   UNL     1     -36.307  51.803  15.969  1.00  0.00     0.138 A 
ATOM     19  C   UNL     1     -36.024  50.472  15.661  1.00  0.00     0.050 A 
ATOM     20  C   UNL     1     -37.006  49.667  15.085  1.00  0.00     0.030 A 
ATOM     21  Cl  UNL     1     -37.948  53.970  16.072  1.00  0.00    -0.080 Cl
BRANCH  18  22
ATOM     22  O   UNL     1     -35.328  52.568  16.532  1.00  0.00    -0.486 OA
BRANCH  22  23
ATOM     23  C   UNL     1     -34.566  53.392  15.652  1.00  0.00     0.285 C 
BRANCH  23  24
ATOM     24  C   UNL     1     -33.176  52.839  15.546  1.00  0.00     0.078 A 
ATOM     25  N   UNL     1     -32.514  53.099  14.400  1.00  0.00    -0.258 NA
ATOM     26  C   UNL     1     -32.661  52.112  16.602  1.00  0.00     0.027 A 
ATOM     27  C   UNL     1     -31.263  52.598  14.310  1.00  0.00     0.111 A 
ATOM     28  C   UNL     1     -31.369  51.613  16.472  1.00  0.00     0.004 A 
ATOM     29  C   UNL     1     -30.650  51.857  15.307  1.00  0.00     0.020 A 
ENDBRANCH  23  24
ENDBRANCH  22  23
ENDBRANCH  18  22
ENDBRANCH  13  15
ENDBRANCH   4  13
BRANCH   7  30
ATOM     30  N   UNL     1     -41.599  46.887  18.023  1.00  0.00    -0.319 N 
ATOM     31  C   UNL     1     -40.657  47.250  18.995  1.00  0.00     0.248 C 
ATOM     32  O   UNL     1     -40.047  48.310  19.073  1.00  0.00    -0.270 OA
ATOM     33  H   UNL     1     -42.018  45.962  18.098  1.00  0.00     0.170 HD
BRANCH  31  34
ATOM     34  C   UNL     1     -40.444  46.158  19.990  1.00  0.00     0.068 C 
ATOM     35  C   UNL     1     -41.353  45.183  20.136  1.00  0.00    -0.006 C 
BRANCH  35  36
ATOM     36  C   UNL     1     -41.198  44.053  21.109  1.00  0.00     0.111 C 
BRANCH  36  37
ATOM     37  N   UNL     1     -42.429  43.282  21.237  1.00  0.00    -0.306 NA
ATOM     38  C   UNL     1     -42.375  42.418  22.416  1.00  0.00     0.105 C 
ATOM     39  C   UNL     1     -42.665  42.485  20.032  1.00  0.00     0.105 C 
ENDBRANCH  36  37
ENDBRANCH  35  36
ENDBRANCH  31  34
ENDBRANCH   7  30
BRANCH   8  40
ATOM     40  O   UNL     1     -44.338  47.303  17.570  1.00  0.00    -0.492 OA
BRANCH  40  41
ATOM     41  C   UNL     1     -44.917  46.058  17.184  1.00  0.00     0.226 C 
ATOM     42  C   UNL     1     -44.814  45.087  18.341  1.00  0.00     0.049 C 
ENDBRANCH  40  41
ENDBRANCH   8  40
TORSDOF 11
ENDMDL
MODEL 5
REMARK VINA RESULT:    -8.769      3.574      7.517
REMARK INTER + INTRA:         -16.061
REMARK INTER:                 -14.362
REMARK INTRA:                  -1.699
REMARK UNBOUND:                -1.653
REMARK SMILES CCOc1cc2ncc(C#N)c(Nc3ccc(OCc4ccccn4)c(Cl)c3)c2cc1NC(=O)/C=C/CN(C)C
REMARK SMILES IDX 7 1 11 2 29 3 12 4 6 5 30 6 31 7 4 8 5 9 9 10 8 11 10 12
REMARK SMILES IDX 13 13 14 15 26 16 28 17 17 18 16 19 15 20 27 21 18 22 19 23
REMARK SMILES IDX 20 24 25 25 21 26 24 27 22 28 23 29 32 30 33 31 34 32 35 34
REMARK SMILES IDX 36 35 37 36 38 37 39 38 40 39 3 40 2 41 1 42
REMARK H PARENT 13 14 32 33
ROOT
ATOM      1  N   UNL     1     -43.052  45.674  19.503  1.00  0.00    -0.255 NA
ATOM      2  N   UNL     1     -38.275  45.182  19.653  1.00  0.00    -0.192 NA
ATOM      3  C   UNL     1     -42.347  46.584  17.386  1.00  0.00     0.027 A 
ATOM      4  C   UNL     1     -41.014  46.314  17.720  1.00  0.00     0.068 A 
ATOM      5  C   UNL     1     -43.349  46.243  18.319  1.00  0.00     0.076 A 
ATOM      6  C   UNL     1     -42.693  47.178  16.159  1.00  0.00     0.042 A 
ATOM      7  C   UNL     1     -44.026  47.436  15.853  1.00  0.00     0.084 A 
ATOM      8  C   UNL     1     -45.017  47.102  16.768  1.00  0.00     0.144 A 
ATOM      9  C   UNL     1     -44.673  46.512  17.987  1.00  0.00     0.077 A 
ATOM     10  C   UNL     1     -40.705  45.726  18.939  1.00  0.00     0.094 A 
ATOM     11  C   UNL     1     -41.753  45.428  19.787  1.00  0.00     0.133 A 
ATOM     12  C   UNL     1     -39.364  45.426  19.333  1.00  0.00     0.103 C 
ENDROOT
BRANCH   4  13
ATOM     13  N   UNL     1     -39.962  46.634  16.822  1.00  0.00    -0.354 N 
ATOM     14  H   UNL     1     -39.650  45.833  16.282  1.00  0.00     0.167 HD
BRANCH  13  15
ATOM     15  C   UNL     1     -39.291  47.833  16.542  1.00  0.00     0.040 A 
ATOM     16  C   UNL     1     -39.084  49.873  15.252  1.00  0.00     0.085 A 
ATOM     17  C   UNL     1     -39.752  48.680  15.529  1.00  0.00     0.050 A 
ATOM     18  C   UNL     1     -37.951  50.225  15.986  1.00  0.00     0.138 A 
ATOM     19  C   UNL     1     -37.486  49.384  16.997  1.00  0.00     0.050 A 
ATOM     20  C   UNL     1     -38.154  48.191  17.274  1.00  0.00     0.030 A 
ATOM     21  Cl  UNL     1     -39.681  50.895  13.997  1.00  0.00    -0.080 Cl
BRANCH  18  22
ATOM     22  O   UNL     1     -37.279  51.385  15.737  1.00  0.00    -0.486 OA
BRANCH  22  23
ATOM     23  C   UNL     1     -36.333  51.367  14.670  1.00  0.00     0.285 C 
BRANCH  23  24
ATOM     24  C   UNL     1     -34.992  51.782  15.198  1.00  0.00     0.078 A 
ATOM     25  N   UNL     1     -33.967  51.754  14.322  1.00  0.00    -0.258 NA
ATOM     26  C   UNL     1     -34.881  52.163  16.522  1.00  0.00     0.027 A 
ATOM     27  C   UNL     1     -32.762  52.130  14.804  1.00  0.00     0.111 A 
ATOM     28  C   UNL     1     -33.625  52.543  16.981  1.00  0.00     0.004 A 
ATOM     29  C   UNL     1     -32.540  52.529  16.111  1.00  0.00     0.020 A 
ENDBRANCH  23  24
ENDBRANCH  22  23
ENDBRANCH  18  22
ENDBRANCH  13  15
ENDBRANCH   4  13
BRANCH   7  30
ATOM     30  N   UNL     1     -44.350  48.027  14.630  1.00  0.00    -0.319 N 
ATOM     31  C   UNL     1     -43.787  49.171  14.049  1.00  0.00     0.248 C 
ATOM     32  O   UNL     1     -42.896  49.874  14.512  1.00  0.00    -0.270 OA
ATOM     33  H   UNL     1     -45.088  47.553  14.113  1.00  0.00     0.170 HD
BRANCH  31  34
ATOM     34  C   UNL     1     -44.411  49.481  12.728  1.00  0.00     0.068 C 
ATOM     35  C   UNL     1     -45.692  49.168  12.490  1.00  0.00    -0.006 C 
BRANCH  35  36
ATOM     36  C   UNL     1     -46.382  49.459  11.191  1.00  0.00     0.111 C 
BRANCH  36  37
ATOM     37  N   UNL     1     -47.725  49.987  11.404  1.00  0.00    -0.306 NA
ATOM     38  C   UNL     1     -47.713  51.450  11.365  1.00  0.00     0.105 C 
ATOM     39  C   UNL     1     -48.267  49.517  12.679  1.00  0.00     0.105 C 
ENDBRANCH  36  37
ENDBRANCH  35  36
ENDBRANCH  31  34
ENDBRANCH   7  30
BRANCH   8  40
ATOM     40  O   UNL     1     -46.331  47.344  16.497  1.00  0.00    -0.492 OA
BRANCH  40  41
ATOM     41  C   UNL     1     -47.158  46.211  16.245  1.00  0.00     0.226 C 
ATOM     42  C   UNL     1     -47.484  46.157  14.768  1.00  0.00     0.049 C 
ENDBRANCH  40  41
ENDBRANCH   8  40
TORSDOF 11
ENDMDL
MODEL 6
REMARK VINA RESULT:    -8.522      2.491      3.483
REMARK INTER + INTRA:         -15.655
REMARK INTER:                 -13.833
REMARK INTRA:                  -1.822
REMARK UNBOUND:                -1.653
REMARK SMILES CCOc1cc2ncc(C#N)c(Nc3ccc(OCc4ccccn4)c(Cl)c3)c2cc1NC(=O)/C=C/CN(C)C
REMARK SMILES IDX 7 1 11 2 29 3 12 4 6 5 30 6 31 7 4 8 5 9 9 10 8 11 10 12
REMARK SMILES IDX 13 13 14 15 26 16 28 17 17 18 16 19 15 20 27 21 18 22 19 23
REMARK SMILES IDX 20 24 25 25 21 26 24 27 22 28 23 29 32 30 33 31 34 32 35 34
REMARK SMILES IDX 36 35 37 36 38 37 39 38 40 39 3 40 2 41 1 42
REMARK H PARENT 13 14 32 33
ROOT
ATOM      1  N   UNL     1     -45.261  46.174  15.593  1.00  0.00    -0.255 NA
ATOM      2  N   UNL     1     -44.322  50.024  12.875  1.00  0.00    -0.192 NA
ATOM      3  C   UNL     1     -43.539  47.310  16.839  1.00  0.00     0.027 A 
ATOM      4  C   UNL     1     -43.492  48.306  15.855  1.00  0.00     0.068 A 
ATOM      5  C   UNL     1     -44.451  46.247  16.666  1.00  0.00     0.076 A 
ATOM      6  C   UNL     1     -42.708  47.354  17.972  1.00  0.00     0.042 A 
ATOM      7  C   UNL     1     -42.774  46.350  18.934  1.00  0.00     0.084 A 
ATOM      8  C   UNL     1     -43.670  45.301  18.769  1.00  0.00     0.144 A 
ATOM      9  C   UNL     1     -44.496  45.257  17.643  1.00  0.00     0.077 A 
ATOM     10  C   UNL     1     -44.327  48.234  14.749  1.00  0.00     0.094 A 
ATOM     11  C   UNL     1     -45.186  47.157  14.667  1.00  0.00     0.133 A 
ATOM     12  C   UNL     1     -44.324  49.222  13.714  1.00  0.00     0.103 C 
ENDROOT
BRANCH   4  13
ATOM     13  N   UNL     1     -42.596  49.400  15.974  1.00  0.00    -0.354 N 
ATOM     14  H   UNL     1     -43.039  50.230  16.357  1.00  0.00     0.167 HD
BRANCH  13  15
ATOM     15  C   UNL     1     -41.234  49.543  15.672  1.00  0.00     0.040 A 
ATOM     16  C   UNL     1     -38.910  49.095  16.188  1.00  0.00     0.085 A 
ATOM     17  C   UNL     1     -40.264  48.953  16.489  1.00  0.00     0.050 A 
ATOM     18  C   UNL     1     -38.517  49.829  15.068  1.00  0.00     0.138 A 
ATOM     19  C   UNL     1     -39.480  50.420  14.250  1.00  0.00     0.050 A 
ATOM     20  C   UNL     1     -40.834  50.278  14.551  1.00  0.00     0.030 A 
ATOM     21  Cl  UNL     1     -37.741  48.353  17.217  1.00  0.00    -0.080 Cl
BRANCH  18  22
ATOM     22  O   UNL     1     -37.201  49.983  14.750  1.00  0.00    -0.486 OA
BRANCH  22  23
ATOM     23  C   UNL     1     -36.799  51.263  14.263  1.00  0.00     0.285 C 
BRANCH  23  24
ATOM     24  C   UNL     1     -35.502  51.647  14.911  1.00  0.00     0.078 A 
ATOM     25  N   UNL     1     -34.395  51.532  14.150  1.00  0.00    -0.258 NA
ATOM     26  C   UNL     1     -35.511  52.088  16.221  1.00  0.00     0.027 A 
ATOM     27  C   UNL     1     -33.230  51.880  14.738  1.00  0.00     0.111 A 
ATOM     28  C   UNL     1     -34.292  52.437  16.792  1.00  0.00     0.004 A 
ATOM     29  C   UNL     1     -33.125  52.334  16.043  1.00  0.00     0.020 A 
ENDBRANCH  23  24
ENDBRANCH  22  23
ENDBRANCH  18  22
ENDBRANCH  13  15
ENDBRANCH   4  13
BRANCH   7  30
ATOM     30  N   UNL     1     -41.940  46.411  20.052  1.00  0.00    -0.319 N 
ATOM     31  C   UNL     1     -42.287  46.731  21.371  1.00  0.00     0.248 C 
ATOM     32  O   UNL     1     -43.401  47.023  21.792  1.00  0.00    -0.270 OA
ATOM     33  H   UNL     1     -40.963  46.192  19.864  1.00  0.00     0.170 HD
BRANCH  31  34
ATOM     34  C   UNL     1     -41.102  46.686  22.278  1.00  0.00     0.068 C 
ATOM     35  C   UNL     1     -39.926  46.215  21.840  1.00  0.00    -0.006 C 
BRANCH  35  36
ATOM     36  C   UNL     1     -38.697  46.151  22.695  1.00  0.00     0.111 C 
BRANCH  36  37
ATOM     37  N   UNL     1     -37.501  46.508  21.941  1.00  0.00    -0.306 NA
ATOM     38  C   UNL     1     -37.846  46.845  20.559  1.00  0.00     0.105 C 
ATOM     39  C   UNL     1     -36.527  45.416  21.970  1.00  0.00     0.105 C 
ENDBRANCH  36  37
ENDBRANCH  35  36
ENDBRANCH  31  34
ENDBRANCH   7  30
BRANCH   8  40
ATOM     40  O   UNL     1     -43.758  44.303  19.693  1.00  0.00    -0.492 OA
BRANCH  40  41
ATOM     41  C   UNL     1     -43.027  43.108  19.427  1.00  0.00     0.226 C 
ATOM     42  C   UNL     1     -42.046  42.868  20.555  1.00  0.00     0.049 C 
ENDBRANCH  40  41
ENDBRANCH   8  40
TORSDOF 11
ENDMDL
MODEL 7
REMARK VINA RESULT:    -8.499      4.684      8.787
REMARK INTER + INTRA:         -15.618
REMARK INTER:                 -14.421
REMARK INTRA:                  -1.197
REMARK UNBOUND:                -1.653
REMARK SMILES CCOc1cc2ncc(C#N)c(Nc3ccc(OCc4ccccn4)c(Cl)c3)c2cc1NC(=O)/C=C/CN(C)C
REMARK SMILES IDX 7 1 11 2 29 3 12 4 6 5 30 6 31 7 4 8 5 9 9 10 8 11 10 12
REMARK SMILES IDX 13 13 14 15 26 16 28 17 17 18 16 19 15 20 27 21 18 22 19 23
REMARK SMILES IDX 20 24 25 25 21 26 24 27 22 28 23 29 32 30 33 31 34 32 35 34
REMARK SMILES IDX 36 35 37 36 38 37 39 38 40 39 3 40 2 41 1 42
REMARK H PARENT 13 14 32 33
ROOT
ATOM      1  N   UNL     1     -45.089  45.509  17.235  1.00  0.00    -0.255 NA
ATOM      2  N   UNL     1     -41.664  47.708  19.789  1.00  0.00    -0.192 NA
ATOM      3  C   UNL     1     -44.676  47.518  15.970  1.00  0.00     0.027 A 
ATOM      4  C   UNL     1     -43.708  47.903  16.907  1.00  0.00     0.068 A 
ATOM      5  C   UNL     1     -45.352  46.297  16.176  1.00  0.00     0.076 A 
ATOM      6  C   UNL     1     -44.976  48.316  14.852  1.00  0.00     0.042 A 
ATOM      7  C   UNL     1     -45.943  47.910  13.937  1.00  0.00     0.084 A 
ATOM      8  C   UNL     1     -46.612  46.708  14.133  1.00  0.00     0.144 A 
ATOM      9  C   UNL     1     -46.313  45.916  15.245  1.00  0.00     0.077 A 
ATOM     10  C   UNL     1     -43.434  47.092  18.000  1.00  0.00     0.094 A 
ATOM     11  C   UNL     1     -44.146  45.916  18.117  1.00  0.00     0.133 A 
ATOM     12  C   UNL     1     -42.457  47.432  18.988  1.00  0.00     0.103 C 
ENDROOT
BRANCH   4  13
ATOM     13  N   UNL     1     -42.995  49.120  16.754  1.00  0.00    -0.354 N 
ATOM     14  H   UNL     1     -43.452  49.903  17.211  1.00  0.00     0.167 HD
BRANCH  13  15
ATOM     15  C   UNL     1     -41.791  49.434  16.106  1.00  0.00     0.040 A 
ATOM     16  C   UNL     1     -40.608  50.303  14.180  1.00  0.00     0.085 A 
ATOM     17  C   UNL     1     -41.805  49.991  14.823  1.00  0.00     0.050 A 
ATOM     18  C   UNL     1     -39.390  50.060  14.815  1.00  0.00     0.138 A 
ATOM     19  C   UNL     1     -39.369  49.504  16.094  1.00  0.00     0.050 A 
ATOM     20  C   UNL     1     -40.567  49.192  16.737  1.00  0.00     0.030 A 
ATOM     21  Cl  UNL     1     -40.662  50.990  12.598  1.00  0.00    -0.080 Cl
BRANCH  18  22
ATOM     22  O   UNL     1     -38.204  50.355  14.209  1.00  0.00    -0.486 OA
BRANCH  22  23
ATOM     23  C   UNL     1     -37.015  50.071  14.943  1.00  0.00     0.285 C 
BRANCH  23  24
ATOM     24  C   UNL     1     -36.265  51.349  15.172  1.00  0.00     0.078 A 
ATOM     25  N   UNL     1     -34.921  51.253  15.229  1.00  0.00    -0.258 NA
ATOM     26  C   UNL     1     -36.973  52.528  15.309  1.00  0.00     0.027 A 
ATOM     27  C   UNL     1     -34.251  52.408  15.435  1.00  0.00     0.111 A 
ATOM     28  C   UNL     1     -36.249  53.696  15.519  1.00  0.00     0.004 A 
ATOM     29  C   UNL     1     -34.861  53.642  15.585  1.00  0.00     0.020 A 
ENDBRANCH  23  24
ENDBRANCH  22  23
ENDBRANCH  18  22
ENDBRANCH  13  15
ENDBRANCH   4  13
BRANCH   7  30
ATOM     30  N   UNL     1     -46.228  48.716  12.832  1.00  0.00    -0.319 N 
ATOM     31  C   UNL     1     -45.386  49.641  12.199  1.00  0.00     0.248 C 
ATOM     32  O   UNL     1     -44.232  49.917  12.502  1.00  0.00    -0.270 OA
ATOM     33  H   UNL     1     -47.167  48.603  12.457  1.00  0.00     0.170 HD
BRANCH  31  34
ATOM     34  C   UNL     1     -46.067  50.305  11.048  1.00  0.00     0.068 C 
ATOM     35  C   UNL     1     -46.767  51.434  11.230  1.00  0.00    -0.006 C 
BRANCH  35  36
ATOM     36  C   UNL     1     -47.465  52.156  10.118  1.00  0.00     0.111 C 
BRANCH  36  37
ATOM     37  N   UNL     1     -48.833  52.508  10.483  1.00  0.00    -0.306 NA
ATOM     38  C   UNL     1     -49.125  52.084  11.853  1.00  0.00     0.105 C 
ATOM     39  C   UNL     1     -49.786  51.906   9.550  1.00  0.00     0.105 C 
ENDBRANCH  36  37
ENDBRANCH  35  36
ENDBRANCH  31  34
ENDBRANCH   7  30
BRANCH   8  40
ATOM     40  O   UNL     1     -47.565  46.284  13.255  1.00  0.00    -0.492 OA
BRANCH  40  41
ATOM     41  C   UNL     1     -47.280  45.101  12.513  1.00  0.00     0.226 C 
ATOM     42  C   UNL     1     -48.560  44.593  11.885  1.00  0.00     0.049 C 
ENDBRANCH  40  41
ENDBRANCH   8  40
TORSDOF 11
ENDMDL
MODEL 8
REMARK VINA RESULT:    -8.451      2.697      8.080
REMARK INTER + INTRA:         -15.538
REMARK INTER:                 -13.830
REMARK INTRA:                  -1.707
REMARK UNBOUND:                -1.653
REMARK SMILES CCOc1cc2ncc(C#N)c(Nc3ccc(OCc4ccccn4)c(Cl)c3)c2cc1NC(=O)/C=C/CN(C)C
REMARK SMILES IDX 7 1 11 2 29 3 12 4 6 5 30 6 31 7 4 8 5 9 9 10 8 11 10 12
REMARK SMILES IDX 13 13 14 15 26 16 28 17 17 18 16 19 15 20 27 21 18 22 19 23
REMARK SMILES IDX 20 24 25 25 21 26 24 27 22 28 23 29 32 30 33 31 34 32 35 34
REMARK SMILES IDX 36 35 37 36 38 37 39 38 40 39 3 40 2 41 1 42
REMARK H PARENT 13 14 32 33
ROOT
ATOM      1  N   UNL     1     -44.467  48.580  15.254  1.00  0.00    -0.255 NA
ATOM      2  N   UNL     1     -44.921  44.814  18.202  1.00  0.00    -0.192 NA
ATOM      3  C   UNL     1     -42.182  48.031  15.786  1.00  0.00     0.027 A 
ATOM      4  C   UNL     1     -42.629  46.980  16.597  1.00  0.00     0.068 A 
ATOM      5  C   UNL     1     -43.148  48.818  15.124  1.00  0.00     0.076 A 
ATOM      6  C   UNL     1     -40.813  48.307  15.627  1.00  0.00     0.042 A 
ATOM      7  C   UNL     1     -40.395  49.359  14.816  1.00  0.00     0.084 A 
ATOM      8  C   UNL     1     -41.342  50.136  14.161  1.00  0.00     0.144 A 
ATOM      9  C   UNL     1     -42.703  49.862  14.319  1.00  0.00     0.077 A 
ATOM     10  C   UNL     1     -43.989  46.732  16.732  1.00  0.00     0.094 A 
ATOM     11  C   UNL     1     -44.858  47.555  16.044  1.00  0.00     0.133 A 
ATOM     12  C   UNL     1     -44.504  45.674  17.544  1.00  0.00     0.103 C 
ENDROOT
BRANCH   4  13
ATOM     13  N   UNL     1     -41.705  46.154  17.288  1.00  0.00    -0.354 N 
ATOM     14  H   UNL     1     -41.326  45.414  16.703  1.00  0.00     0.167 HD
BRANCH  13  15
ATOM     15  C   UNL     1     -41.222  46.174  18.604  1.00  0.00     0.040 A 
ATOM     16  C   UNL     1     -40.346  47.398  20.502  1.00  0.00     0.085 A 
ATOM     17  C   UNL     1     -40.827  47.379  19.193  1.00  0.00     0.050 A 
ATOM     18  C   UNL     1     -40.258  46.210  21.230  1.00  0.00     0.138 A 
ATOM     19  C   UNL     1     -40.649  45.005  20.648  1.00  0.00     0.050 A 
ATOM     20  C   UNL     1     -41.130  44.987  19.339  1.00  0.00     0.030 A 
ATOM     21  Cl  UNL     1     -39.869  48.903  21.198  1.00  0.00    -0.080 Cl
BRANCH  18  22
ATOM     22  O   UNL     1     -39.792  46.200  22.512  1.00  0.00    -0.486 OA
BRANCH  22  23
ATOM     23  C   UNL     1     -38.881  45.159  22.859  1.00  0.00     0.285 C 
BRANCH  23  24
ATOM     24  C   UNL     1     -37.485  45.606  22.540  1.00  0.00     0.078 A 
ATOM     25  N   UNL     1     -36.615  44.640  22.181  1.00  0.00    -0.258 NA
ATOM     26  C   UNL     1     -37.173  46.949  22.628  1.00  0.00     0.027 A 
ATOM     27  C   UNL     1     -35.359  45.048  21.895  1.00  0.00     0.111 A 
ATOM     28  C   UNL     1     -35.871  47.331  22.326  1.00  0.00     0.004 A 
ATOM     29  C   UNL     1     -34.941  46.368  21.951  1.00  0.00     0.020 A 
ENDBRANCH  23  24
ENDBRANCH  22  23
ENDBRANCH  18  22
ENDBRANCH  13  15
ENDBRANCH   4  13
BRANCH   7  30
ATOM     30  N   UNL     1     -39.031  49.618  14.672  1.00  0.00    -0.319 N 
ATOM     31  C   UNL     1     -38.065  49.741  15.679  1.00  0.00     0.248 C 
ATOM     32  O   UNL     1     -38.241  49.645  16.888  1.00  0.00    -0.270 OA
ATOM     33  H   UNL     1     -38.720  49.727  13.708  1.00  0.00     0.170 HD
BRANCH  31  34
ATOM     34  C   UNL     1     -36.712  50.022  15.113  1.00  0.00     0.068 C 
ATOM     35  C   UNL     1     -36.268  51.282  15.002  1.00  0.00    -0.006 C 
BRANCH  35  36
ATOM     36  C   UNL     1     -34.918  51.632  14.452  1.00  0.00     0.111 C 
BRANCH  36  37
ATOM     37  N   UNL     1     -33.906  51.673  15.501  1.00  0.00    -0.306 NA
ATOM     38  C   UNL     1     -34.423  52.354  16.688  1.00  0.00     0.105 C 
ATOM     39  C   UNL     1     -32.694  52.338  15.021  1.00  0.00     0.105 C 
ENDBRANCH  36  37
ENDBRANCH  35  36
ENDBRANCH  31  34
ENDBRANCH   7  30
BRANCH   8  40
ATOM     40  O   UNL     1     -40.965  51.174  13.361  1.00  0.00    -0.492 OA
BRANCH  40  41
ATOM     41  C   UNL     1     -40.834  50.902  11.968  1.00  0.00     0.226 C 
ATOM     42  C   UNL     1     -39.453  51.322  11.511  1.00  0.00     0.049 C 
ENDBRANCH  40  41
ENDBRANCH   8  40
TORSDOF 11
ENDMDL
MODEL 9
REMARK VINA RESULT:    -8.198      3.986      7.890
REMARK INTER + INTRA:         -15.123
REMARK INTER:                 -13.473
REMARK INTRA:                  -1.650
REMARK UNBOUND:                -1.653
REMARK SMILES CCOc1cc2ncc(C#N)c(Nc3ccc(OCc4ccccn4)c(Cl)c3)c2cc1NC(=O)/C=C/CN(C)C
REMARK SMILES IDX 7 1 11 2 29 3 12 4 6 5 30 6 31 7 4 8 5 9 9 10 8 11 10 12
REMARK SMILES IDX 13 13 14 15 26 16 28 17 17 18 16 19 15 20 27 21 18 22 19 23
REMARK SMILES IDX 20 24 25 25 21 26 24 27 22 28 23 29 32 30 33 31 34 32 35 34
REMARK SMILES IDX 36 35 37 36 38 37 39 38 40 39 3 40 2 41 1 42
REMARK H PARENT 13 14 32 33
ROOT
ATOM      1  N   UNL     1     -43.304  45.440  20.040  1.00  0.00    -0.255 NA
ATOM      2  N   UNL     1     -38.522  45.301  19.591  1.00  0.00    -0.192 NA
ATOM      3  C   UNL     1     -42.952  46.172  17.772  1.00  0.00     0.027 A 
ATOM      4  C   UNL     1     -41.569  46.032  17.947  1.00  0.00     0.068 A 
ATOM      5  C   UNL     1     -43.795  45.861  18.860  1.00  0.00     0.076 A 
ATOM      6  C   UNL     1     -43.499  46.609  16.553  1.00  0.00     0.042 A 
ATOM      7  C   UNL     1     -44.877  46.741  16.406  1.00  0.00     0.084 A 
ATOM      8  C   UNL     1     -45.713  46.436  17.474  1.00  0.00     0.144 A 
ATOM      9  C   UNL     1     -45.169  46.001  18.685  1.00  0.00     0.077 A 
ATOM     10  C   UNL     1     -41.060  45.597  19.163  1.00  0.00     0.094 A 
ATOM     11  C   UNL     1     -41.963  45.316  20.168  1.00  0.00     0.133 A 
ATOM     12  C   UNL     1     -39.659  45.434  19.399  1.00  0.00     0.103 C 
ENDROOT
BRANCH   4  13
ATOM     13  N   UNL     1     -40.671  46.329  16.889  1.00  0.00    -0.354 N 
ATOM     14  H   UNL     1     -40.374  45.501  16.382  1.00  0.00     0.167 HD
BRANCH  13  15
ATOM     15  C   UNL     1     -40.132  47.536  16.419  1.00  0.00     0.040 A 
ATOM     16  C   UNL     1     -40.218  49.427  14.908  1.00  0.00     0.085 A 
ATOM     17  C   UNL     1     -40.754  48.227  15.375  1.00  0.00     0.050 A 
ATOM     18  C   UNL     1     -39.054  49.942  15.482  1.00  0.00     0.138 A 
ATOM     19  C   UNL     1     -38.429  49.256  16.523  1.00  0.00     0.050 A 
ATOM     20  C   UNL     1     -38.966  48.056  16.990  1.00  0.00     0.030 A 
ATOM     21  Cl  UNL     1     -41.012  50.255  13.619  1.00  0.00    -0.080 Cl
BRANCH  18  22
ATOM     22  O   UNL     1     -38.508  51.112  15.046  1.00  0.00    -0.486 OA
BRANCH  22  23
ATOM     23  C   UNL     1     -37.357  51.016  14.209  1.00  0.00     0.285 C 
BRANCH  23  24
ATOM     24  C   UNL     1     -36.241  51.809  14.821  1.00  0.00     0.078 A 
ATOM     25  N   UNL     1     -35.071  51.160  14.995  1.00  0.00    -0.258 NA
ATOM     26  C   UNL     1     -36.464  53.128  15.164  1.00  0.00     0.027 A 
ATOM     27  C   UNL     1     -34.069  51.879  15.546  1.00  0.00     0.111 A 
ATOM     28  C   UNL     1     -35.409  53.836  15.728  1.00  0.00     0.004 A 
ATOM     29  C   UNL     1     -34.185  53.206  15.926  1.00  0.00     0.020 A 
ENDBRANCH  23  24
ENDBRANCH  22  23
ENDBRANCH  18  22
ENDBRANCH  13  15
ENDBRANCH   4  13
BRANCH   7  30
ATOM     30  N   UNL     1     -45.402  47.178  15.188  1.00  0.00    -0.319 N 
ATOM     31  C   UNL     1     -45.083  48.343  14.479  1.00  0.00     0.248 C 
ATOM     32  O   UNL     1     -44.275  49.207  14.802  1.00  0.00    -0.270 OA
ATOM     33  H   UNL     1     -46.101  46.558  14.782  1.00  0.00     0.170 HD
BRANCH  31  34
ATOM     34  C   UNL     1     -45.867  48.450  13.213  1.00  0.00     0.068 C 
ATOM     35  C   UNL     1     -46.716  47.476  12.854  1.00  0.00    -0.006 C 
BRANCH  35  36
ATOM     36  C   UNL     1     -47.539  47.524  11.602  1.00  0.00     0.111 C 
BRANCH  36  37
ATOM     37  N   UNL     1     -48.469  46.402  11.529  1.00  0.00    -0.306 NA
ATOM     38  C   UNL     1     -47.876  45.203  12.122  1.00  0.00     0.105 C 
ATOM     39  C   UNL     1     -48.858  46.145  10.142  1.00  0.00     0.105 C 
ENDBRANCH  36  37
ENDBRANCH  35  36
ENDBRANCH  31  34
ENDBRANCH   7  30
BRANCH   8  40
ATOM     40  O   UNL     1     -47.066  46.555  17.361  1.00  0.00    -0.492 OA
BRANCH  40  41
ATOM     41  C   UNL     1     -47.855  45.969  18.393  1.00  0.00     0.226 C 
ATOM     42  C   UNL     1     -48.855  46.991  18.891  1.00  0.00     0.049 C 
ENDBRANCH  40  41
ENDBRANCH   8  40
TORSDOF 11
ENDMDL
MODEL 10
REMARK VINA RESULT:    -8.176      3.347      8.145
REMARK INTER + INTRA:         -15.087
REMARK INTER:                 -13.555
REMARK INTRA:                  -1.532
REMARK UNBOUND:                -1.653
REMARK SMILES CCOc1cc2ncc(C#N)c(Nc3ccc(OCc4ccccn4)c(Cl)c3)c2cc1NC(=O)/C=C/CN(C)C
REMARK SMILES IDX 7 1 11 2 29 3 12 4 6 5 30 6 31 7 4 8 5 9 9 10 8 11 10 12
REMARK SMILES IDX 13 13 14 15 26 16 28 17 17 18 16 19 15 20 27 21 18 22 19 23
REMARK SMILES IDX 20 24 25 25 21 26 24 27 22 28 23 29 32 30 33 31 34 32 35 34
REMARK SMILES IDX 36 35 37 36 38 37 39 38 40 39 3 40 2 41 1 42
REMARK H PARENT 13 14 32 33
ROOT
ATOM      1  N   UNL     1     -40.276  44.720  22.717  1.00  0.00    -0.255 NA
ATOM      2  N   UNL     1     -44.091  42.489  20.831  1.00  0.00    -0.192 NA
ATOM      3  C   UNL     1     -40.159  45.325  20.387  1.00  0.00     0.027 A 
ATOM      4  C   UNL     1     -41.316  44.574  20.140  1.00  0.00     0.068 A 
ATOM      5  C   UNL     1     -39.667  45.371  21.708  1.00  0.00     0.076 A 
ATOM      6  C   UNL     1     -39.498  46.017  19.358  1.00  0.00     0.042 A 
ATOM      7  C   UNL     1     -38.350  46.755  19.631  1.00  0.00     0.084 A 
ATOM      8  C   UNL     1     -37.860  46.805  20.930  1.00  0.00     0.144 A 
ATOM      9  C   UNL     1     -38.518  46.117  21.953  1.00  0.00     0.077 A 
ATOM     10  C   UNL     1     -41.947  43.902  21.178  1.00  0.00     0.094 A 
ATOM     11  C   UNL     1     -41.391  44.008  22.437  1.00  0.00     0.133 A 
ATOM     12  C   UNL     1     -43.130  43.122  20.987  1.00  0.00     0.103 C 
ENDROOT
BRANCH   4  13
ATOM     13  N   UNL     1     -41.860  44.489  18.832  1.00  0.00    -0.354 N 
ATOM     14  H   UNL     1     -42.091  43.537  18.564  1.00  0.00     0.167 HD
BRANCH  13  15
ATOM     15  C   UNL     1     -42.139  45.461  17.861  1.00  0.00     0.040 A 
ATOM     16  C   UNL     1     -43.710  46.938  16.757  1.00  0.00     0.085 A 
ATOM     17  C   UNL     1     -43.434  45.971  17.723  1.00  0.00     0.050 A 
ATOM     18  C   UNL     1     -42.692  47.401  15.921  1.00  0.00     0.138 A 
ATOM     19  C   UNL     1     -41.399  46.896  16.053  1.00  0.00     0.050 A 
ATOM     20  C   UNL     1     -41.123  45.929  17.020  1.00  0.00     0.030 A 
ATOM     21  Cl  UNL     1     -45.318  47.545  16.616  1.00  0.00    -0.080 Cl
BRANCH  18  22
ATOM     22  O   UNL     1     -42.934  48.346  14.969  1.00  0.00    -0.486 OA
BRANCH  22  23
ATOM     23  C   UNL     1     -42.557  49.686  15.278  1.00  0.00     0.285 C 
BRANCH  23  24
ATOM     24  C   UNL     1     -41.564  50.162  14.259  1.00  0.00     0.078 A 
ATOM     25  N   UNL     1     -42.031  50.339  13.006  1.00  0.00    -0.258 NA
ATOM     26  C   UNL     1     -40.258  50.388  14.649  1.00  0.00     0.027 A 
ATOM     27  C   UNL     1     -41.132  50.768  12.093  1.00  0.00     0.111 A 
ATOM     28  C   UNL     1     -39.363  50.829  13.681  1.00  0.00     0.004 A 
ATOM     29  C   UNL     1     -39.801  51.025  12.376  1.00  0.00     0.020 A 
ENDBRANCH  23  24
ENDBRANCH  22  23
ENDBRANCH  18  22
ENDBRANCH  13  15
ENDBRANCH   4  13
BRANCH   7  30
ATOM     30  N   UNL     1     -37.705  47.436  18.595  1.00  0.00    -0.319 N 
ATOM     31  C   UNL     1     -38.221  48.451  17.779  1.00  0.00     0.248 C 
ATOM     32  O   UNL     1     -39.347  48.933  17.821  1.00  0.00    -0.270 OA
ATOM     33  H   UNL     1     -36.744  47.143  18.430  1.00  0.00     0.170 HD
BRANCH  31  34
ATOM     34  C   UNL     1     -37.212  48.922  16.784  1.00  0.00     0.068 C 
ATOM     35  C   UNL     1     -37.024  50.232  16.572  1.00  0.00    -0.006 C 
BRANCH  35  36
ATOM     36  C   UNL     1     -36.023  50.772  15.596  1.00  0.00     0.111 C 
BRANCH  36  37
ATOM     37  N   UNL     1     -36.273  52.177  15.294  1.00  0.00    -0.306 NA
ATOM     38  C   UNL     1     -35.069  52.975  15.529  1.00  0.00     0.105 C 
ATOM     39  C   UNL     1     -37.385  52.686  16.097  1.00  0.00     0.105 C 
ENDBRANCH  36  37
ENDBRANCH  35  36
ENDBRANCH  31  34
ENDBRANCH   7  30
BRANCH   8  40
ATOM     40  O   UNL     1     -36.737  47.519  21.229  1.00  0.00    -0.492 OA
BRANCH  40  41
ATOM     41  C   UNL     1     -35.949  47.057  22.323  1.00  0.00     0.226 C 
ATOM     42  C   UNL     1     -34.764  46.284  21.786  1.00  0.00     0.049 C 
ENDBRANCH  40  41
ENDBRANCH   8  40
TORSDOF 11
ENDMDL
MODEL 11
REMARK VINA RESULT:    -8.144      3.427      8.109
REMARK INTER + INTRA:         -15.033
REMARK INTER:                 -14.010
REMARK INTRA:                  -1.024
REMARK UNBOUND:                -1.653
REMARK SMILES CCOc1cc2ncc(C#N)c(Nc3ccc(OCc4ccccn4)c(Cl)c3)c2cc1NC(=O)/C=C/CN(C)C
REMARK SMILES IDX 7 1 11 2 29 3 12 4 6 5 30 6 31 7 4 8 5 9 9 10 8 11 10 12
REMARK SMILES IDX 13 13 14 15 26 16 28 17 17 18 16 19 15 20 27 21 18 22 19 23
REMARK SMILES IDX 20 24 25 25 21 26 24 27 22 28 23 29 32 30 33 31 34 32 35 34
REMARK SMILES IDX 36 35 37 36 38 37 39 38 40 39 3 40 2 41 1 42
REMARK H PARENT 13 14 32 33
ROOT
ATOM      1  N   UNL     1     -45.577  48.704  13.147  1.00  0.00    -0.255 NA
ATOM      2  N   UNL     1     -48.064  47.361  17.032  1.00  0.00    -0.192 NA
ATOM      3  C   UNL     1     -43.914  48.730  14.890  1.00  0.00     0.027 A 
ATOM      4  C   UNL     1     -44.885  48.326  15.816  1.00  0.00     0.068 A 
ATOM      5  C   UNL     1     -44.308  48.910  13.548  1.00  0.00     0.076 A 
ATOM      6  C   UNL     1     -42.580  48.954  15.274  1.00  0.00     0.042 A 
ATOM      7  C   UNL     1     -41.635  49.357  14.335  1.00  0.00     0.084 A 
ATOM      8  C   UNL     1     -42.017  49.535  13.011  1.00  0.00     0.144 A 
ATOM      9  C   UNL     1     -43.343  49.312  12.630  1.00  0.00     0.077 A 
ATOM     10  C   UNL     1     -46.193  48.111  15.405  1.00  0.00     0.094 A 
ATOM     11  C   UNL     1     -46.484  48.313  14.071  1.00  0.00     0.133 A 
ATOM     12  C   UNL     1     -47.226  47.697  16.303  1.00  0.00     0.103 C 
ENDROOT
BRANCH   4  13
ATOM     13  N   UNL     1     -44.549  48.128  17.180  1.00  0.00    -0.354 N 
ATOM     14  H   UNL     1     -45.330  48.301  17.806  1.00  0.00     0.167 HD
BRANCH  13  15
ATOM     15  C   UNL     1     -43.359  47.738  17.812  1.00  0.00     0.040 A 
ATOM     16  C   UNL     1     -41.809  46.002  18.483  1.00  0.00     0.085 A 
ATOM     17  C   UNL     1     -42.992  46.389  17.854  1.00  0.00     0.050 A 
ATOM     18  C   UNL     1     -40.986  46.961  19.075  1.00  0.00     0.138 A 
ATOM     19  C   UNL     1     -41.348  48.308  19.038  1.00  0.00     0.050 A 
ATOM     20  C   UNL     1     -42.531  48.695  18.408  1.00  0.00     0.030 A 
ATOM     21  Cl  UNL     1     -41.385  44.330  18.515  1.00  0.00    -0.080 Cl
BRANCH  18  22
ATOM     22  O   UNL     1     -39.824  46.611  19.696  1.00  0.00    -0.486 OA
BRANCH  22  23
ATOM     23  C   UNL     1     -39.263  47.562  20.599  1.00  0.00     0.285 C 
BRANCH  23  24
ATOM     24  C   UNL     1     -38.154  46.907  21.369  1.00  0.00     0.078 A 
ATOM     25  N   UNL     1     -36.930  47.461  21.244  1.00  0.00    -0.258 NA
ATOM     26  C   UNL     1     -38.438  45.802  22.147  1.00  0.00     0.027 A 
ATOM     27  C   UNL     1     -35.935  46.868  21.939  1.00  0.00     0.111 A 
ATOM     28  C   UNL     1     -37.389  45.219  22.849  1.00  0.00     0.004 A 
ATOM     29  C   UNL     1     -36.110  45.757  22.748  1.00  0.00     0.020 A 
ENDBRANCH  23  24
ENDBRANCH  22  23
ENDBRANCH  18  22
ENDBRANCH  13  15
ENDBRANCH   4  13
BRANCH   7  30
ATOM     30  N   UNL     1     -40.315  49.575  14.735  1.00  0.00    -0.319 N 
ATOM     31  C   UNL     1     -39.500  48.743  15.514  1.00  0.00     0.248 C 
ATOM     32  O   UNL     1     -39.800  47.656  15.996  1.00  0.00    -0.270 OA
ATOM     33  H   UNL     1     -39.914  50.453  14.410  1.00  0.00     0.170 HD
BRANCH  31  34
ATOM     34  C   UNL     1     -38.146  49.336  15.722  1.00  0.00     0.068 C 
ATOM     35  C   UNL     1     -37.729  50.363  14.968  1.00  0.00    -0.006 C 
BRANCH  35  36
ATOM     36  C   UNL     1     -36.387  51.010  15.131  1.00  0.00     0.111 C 
BRANCH  36  37
ATOM     37  N   UNL     1     -36.488  52.282  15.839  1.00  0.00    -0.306 NA
ATOM     38  C   UNL     1     -37.684  53.012  15.416  1.00  0.00     0.105 C 
ATOM     39  C   UNL     1     -35.291  53.093  15.613  1.00  0.00     0.105 C 
ENDBRANCH  36  37
ENDBRANCH  35  36
ENDBRANCH  31  34
ENDBRANCH   7  30
BRANCH   8  40
ATOM     40  O   UNL     1     -41.115  49.929  12.068  1.00  0.00    -0.492 OA
BRANCH  40  41
ATOM     41  C   UNL     1     -40.774  51.313  12.037  1.00  0.00     0.226 C 
ATOM     42  C   UNL     1     -39.308  51.453  11.686  1.00  0.00     0.049 C 
ENDBRANCH  40  41
ENDBRANCH   8  40
TORSDOF 11
ENDMDL
MODEL 12
REMARK VINA RESULT:    -8.115      4.531      9.607
REMARK INTER + INTRA:         -14.986
REMARK INTER:                 -13.040
REMARK INTRA:                  -1.945
REMARK UNBOUND:                -1.653
REMARK SMILES CCOc1cc2ncc(C#N)c(Nc3ccc(OCc4ccccn4)c(Cl)c3)c2cc1NC(=O)/C=C/CN(C)C
REMARK SMILES IDX 7 1 11 2 29 3 12 4 6 5 30 6 31 7 4 8 5 9 9 10 8 11 10 12
REMARK SMILES IDX 13 13 14 15 26 16 28 17 17 18 16 19 15 20 27 21 18 22 19 23
REMARK SMILES IDX 20 24 25 25 21 26 24 27 22 28 23 29 32 30 33 31 34 32 35 34
REMARK SMILES IDX 36 35 37 36 38 37 39 38 40 39 3 40 2 41 1 42
REMARK H PARENT 13 14 32 33
ROOT
ATOM      1  N   UNL     1     -38.464  50.477  15.853  1.00  0.00    -0.255 NA
ATOM      2  N   UNL     1     -40.787  51.291  11.726  1.00  0.00    -0.192 NA
ATOM      3  C   UNL     1     -39.952  48.589  15.688  1.00  0.00     0.027 A 
ATOM      4  C   UNL     1     -40.445  49.091  14.476  1.00  0.00     0.068 A 
ATOM      5  C   UNL     1     -38.948  49.325  16.353  1.00  0.00     0.076 A 
ATOM      6  C   UNL     1     -40.435  47.389  16.238  1.00  0.00     0.042 A 
ATOM      7  C   UNL     1     -39.928  46.914  17.445  1.00  0.00     0.084 A 
ATOM      8  C   UNL     1     -38.939  47.633  18.104  1.00  0.00     0.144 A 
ATOM      9  C   UNL     1     -38.459  48.826  17.556  1.00  0.00     0.077 A 
ATOM     10  C   UNL     1     -39.947  50.278  13.958  1.00  0.00     0.094 A 
ATOM     11  C   UNL     1     -38.966  50.927  14.680  1.00  0.00     0.133 A 
ATOM     12  C   UNL     1     -40.411  50.838  12.727  1.00  0.00     0.103 C 
ENDROOT
BRANCH   4  13
ATOM     13  N   UNL     1     -41.455  48.395  13.761  1.00  0.00    -0.354 N 
ATOM     14  H   UNL     1     -41.085  47.858  12.983  1.00  0.00     0.167 HD
BRANCH  13  15
ATOM     15  C   UNL     1     -42.844  48.309  13.933  1.00  0.00     0.040 A 
ATOM     16  C   UNL     1     -44.780  47.196  14.871  1.00  0.00     0.085 A 
ATOM     17  C   UNL     1     -43.398  47.281  14.701  1.00  0.00     0.050 A 
ATOM     18  C   UNL     1     -45.616  48.140  14.272  1.00  0.00     0.138 A 
ATOM     19  C   UNL     1     -45.070  49.167  13.504  1.00  0.00     0.050 A 
ATOM     20  C   UNL     1     -43.688  49.251  13.334  1.00  0.00     0.030 A 
ATOM     21  Cl  UNL     1     -45.430  45.915  15.827  1.00  0.00    -0.080 Cl
BRANCH  18  22
ATOM     22  O   UNL     1     -46.970  48.081  14.422  1.00  0.00    -0.486 OA
BRANCH  22  23
ATOM     23  C   UNL     1     -47.761  48.439  13.291  1.00  0.00     0.285 C 
BRANCH  23  24
ATOM     24  C   UNL     1     -48.169  47.191  12.565  1.00  0.00     0.078 A 
ATOM     25  N   UNL     1     -48.185  47.259  11.219  1.00  0.00    -0.258 NA
ATOM     26  C   UNL     1     -48.498  46.066  13.298  1.00  0.00     0.027 A 
ATOM     27  C   UNL     1     -48.553  46.132  10.571  1.00  0.00     0.111 A 
ATOM     28  C   UNL     1     -48.871  44.926  12.596  1.00  0.00     0.004 A 
ATOM     29  C   UNL     1     -48.901  44.951  11.206  1.00  0.00     0.020 A 
ENDBRANCH  23  24
ENDBRANCH  22  23
ENDBRANCH  18  22
ENDBRANCH  13  15
ENDBRANCH   4  13
BRANCH   7  30
ATOM     30  N   UNL     1     -40.420  45.719  17.976  1.00  0.00    -0.319 N 
ATOM     31  C   UNL     1     -41.695  45.470  18.502  1.00  0.00     0.248 C 
ATOM     32  O   UNL     1     -42.624  46.264  18.595  1.00  0.00    -0.270 OA
ATOM     33  H   UNL     1     -39.755  44.948  17.972  1.00  0.00     0.170 HD
BRANCH  31  34
ATOM     34  C   UNL     1     -41.829  44.060  18.973  1.00  0.00     0.068 C 
ATOM     35  C   UNL     1     -42.550  43.772  20.066  1.00  0.00    -0.006 C 
BRANCH  35  36
ATOM     36  C   UNL     1     -42.733  42.379  20.587  1.00  0.00     0.111 C 
BRANCH  36  37
ATOM     37  N   UNL     1     -44.116  42.129  20.976  1.00  0.00    -0.306 NA
ATOM     38  C   UNL     1     -44.904  41.693  19.823  1.00  0.00     0.105 C 
ATOM     39  C   UNL     1     -44.708  43.328  21.571  1.00  0.00     0.105 C 
ENDBRANCH  36  37
ENDBRANCH  35  36
ENDBRANCH  31  34
ENDBRANCH   7  30
BRANCH   8  40
ATOM     40  O   UNL     1     -38.423  47.194  19.287  1.00  0.00    -0.492 OA
BRANCH  40  41
ATOM     41  C   UNL     1     -38.599  48.038  20.422  1.00  0.00     0.226 C 
ATOM     42  C   UNL     1     -39.975  47.799  21.006  1.00  0.00     0.049 C 
ENDBRANCH  40  41
ENDBRANCH   8  40
TORSDOF 11
ENDMDL
MODEL 13
REMARK VINA RESULT:    -8.078      3.389      4.633
REMARK INTER + INTRA:         -14.925
REMARK INTER:                 -14.710
REMARK INTRA:                  -0.215
REMARK UNBOUND:                -1.653
REMARK SMILES CCOc1cc2ncc(C#N)c(Nc3ccc(OCc4ccccn4)c(Cl)c3)c2cc1NC(=O)/C=C/CN(C)C
REMARK SMILES IDX 7 1 11 2 29 3 12 4 6 5 30 6 31 7 4 8 5 9 9 10 8 11 10 12
REMARK SMILES IDX 13 13 14 15 26 16 28 17 17 18 16 19 15 20 27 21 18 22 19 23
REMARK SMILES IDX 20 24 25 25 21 26 24 27 22 28 23 29 32 30 33 31 34 32 35 34
REMARK SMILES IDX 36 35 37 36 38 37 39 38 40 39 3 40 2 41 1 42
REMARK H PARENT 13 14 32 33
ROOT
ATOM      1  N   UNL     1     -44.543  49.665  13.333  1.00  0.00    -0.255 NA
ATOM      2  N   UNL     1     -40.378  51.021  11.359  1.00  0.00    -0.192 NA
ATOM      3  C   UNL     1     -42.906  48.550  14.705  1.00  0.00     0.027 A 
ATOM      4  C   UNL     1     -41.882  49.107  13.927  1.00  0.00     0.068 A 
ATOM      5  C   UNL     1     -44.240  48.859  14.369  1.00  0.00     0.076 A 
ATOM      6  C   UNL     1     -42.625  47.705  15.793  1.00  0.00     0.042 A 
ATOM      7  C   UNL     1     -43.661  47.164  16.550  1.00  0.00     0.084 A 
ATOM      8  C   UNL     1     -44.978  47.466  16.224  1.00  0.00     0.144 A 
ATOM      9  C   UNL     1     -45.256  48.306  15.143  1.00  0.00     0.077 A 
ATOM     10  C   UNL     1     -42.191  49.938  12.859  1.00  0.00     0.094 A 
ATOM     11  C   UNL     1     -43.526  50.183  12.607  1.00  0.00     0.133 A 
ATOM     12  C   UNL     1     -41.191  50.535  12.031  1.00  0.00     0.103 C 
ENDROOT
BRANCH   4  13
ATOM     13  N   UNL     1     -40.520  48.833  14.216  1.00  0.00    -0.354 N 
ATOM     14  H   UNL     1     -40.235  47.904  13.920  1.00  0.00     0.167 HD
BRANCH  13  15
ATOM     15  C   UNL     1     -39.511  49.597  14.819  1.00  0.00     0.040 A 
ATOM     16  C   UNL     1     -37.922  49.935  16.616  1.00  0.00     0.085 A 
ATOM     17  C   UNL     1     -38.925  49.174  16.017  1.00  0.00     0.050 A 
ATOM     18  C   UNL     1     -37.497  51.124  16.020  1.00  0.00     0.138 A 
ATOM     19  C   UNL     1     -38.078  51.551  14.826  1.00  0.00     0.050 A 
ATOM     20  C   UNL     1     -39.082  50.790  14.228  1.00  0.00     0.030 A 
ATOM     21  Cl  UNL     1     -37.220  49.383  18.092  1.00  0.00    -0.080 Cl
BRANCH  18  22
ATOM     22  O   UNL     1     -36.518  51.887  16.583  1.00  0.00    -0.486 OA
BRANCH  22  23
ATOM     23  C   UNL     1     -35.821  52.783  15.720  1.00  0.00     0.285 C 
BRANCH  23  24
ATOM     24  C   UNL     1     -34.369  52.409  15.697  1.00  0.00     0.078 A 
ATOM     25  N   UNL     1     -33.853  52.085  14.494  1.00  0.00    -0.258 NA
ATOM     26  C   UNL     1     -33.654  52.416  16.880  1.00  0.00     0.027 A 
ATOM     27  C   UNL     1     -32.545  51.748  14.479  1.00  0.00     0.111 A 
ATOM     28  C   UNL     1     -32.310  52.065  16.824  1.00  0.00     0.004 A 
ATOM     29  C   UNL     1     -31.737  51.724  15.604  1.00  0.00     0.020 A 
ENDBRANCH  23  24
ENDBRANCH  22  23
ENDBRANCH  18  22
ENDBRANCH  13  15
ENDBRANCH   4  13
BRANCH   7  30
ATOM     30  N   UNL     1     -43.364  46.326  17.627  1.00  0.00    -0.319 N 
ATOM     31  C   UNL     1     -42.107  45.862  18.037  1.00  0.00     0.248 C 
ATOM     32  O   UNL     1     -41.024  46.106  17.518  1.00  0.00    -0.270 OA
ATOM     33  H   UNL     1     -44.173  46.029  18.168  1.00  0.00     0.170 HD
BRANCH  31  34
ATOM     34  C   UNL     1     -42.211  44.982  19.238  1.00  0.00     0.068 C 
ATOM     35  C   UNL     1     -42.378  43.659  19.101  1.00  0.00    -0.006 C 
BRANCH  35  36
ATOM     36  C   UNL     1     -42.480  42.719  20.264  1.00  0.00     0.111 C 
BRANCH  36  37
ATOM     37  N   UNL     1     -43.804  42.110  20.347  1.00  0.00    -0.306 NA
ATOM     38  C   UNL     1     -44.801  42.958  19.692  1.00  0.00     0.105 C 
ATOM     39  C   UNL     1     -44.175  41.873  21.742  1.00  0.00     0.105 C 
ENDBRANCH  36  37
ENDBRANCH  35  36
ENDBRANCH  31  34
ENDBRANCH   7  30
BRANCH   8  40
ATOM     40  O   UNL     1     -46.014  46.951  16.945  1.00  0.00    -0.492 OA
BRANCH  40  41
ATOM     41  C   UNL     1     -47.326  47.380  16.589  1.00  0.00     0.226 C 
ATOM     42  C   UNL     1     -48.255  46.184  16.599  1.00  0.00     0.049 C 
ENDBRANCH  40  41
ENDBRANCH   8  40
TORSDOF 11
ENDMDL
MODEL 14
REMARK VINA RESULT:    -8.073      3.932      7.880
REMARK INTER + INTRA:         -14.917
REMARK INTER:                 -13.265
REMARK INTRA:                  -1.652
REMARK UNBOUND:                -1.653
REMARK SMILES CCOc1cc2ncc(C#N)c(Nc3ccc(OCc4ccccn4)c(Cl)c3)c2cc1NC(=O)/C=C/CN(C)C
REMARK SMILES IDX 7 1 11 2 29 3 12 4 6 5 30 6 31 7 4 8 5 9 9 10 8 11 10 12
REMARK SMILES IDX 13 13 14 15 26 16 28 17 17 18 16 19 15 20 27 21 18 22 19 23
REMARK SMILES IDX 20 24 25 25 21 26 24 27 22 28 23 29 32 30 33 31 34 32 35 34
REMARK SMILES IDX 36 35 37 36 38 37 39 38 40 39 3 40 2 41 1 42
REMARK H PARENT 13 14 32 33
ROOT
ATOM      1  N   UNL     1     -42.600  46.959  21.709  1.00  0.00    -0.255 NA
ATOM      2  N   UNL     1     -37.955  47.604  20.667  1.00  0.00    -0.192 NA
ATOM      3  C   UNL     1     -42.506  46.495  19.346  1.00  0.00     0.027 A 
ATOM      4  C   UNL     1     -41.129  46.753  19.356  1.00  0.00     0.068 A 
ATOM      5  C   UNL     1     -43.213  46.612  20.561  1.00  0.00     0.076 A 
ATOM      6  C   UNL     1     -43.178  46.131  18.166  1.00  0.00     0.042 A 
ATOM      7  C   UNL     1     -44.547  45.881  18.184  1.00  0.00     0.084 A 
ATOM      8  C   UNL     1     -45.249  45.994  19.378  1.00  0.00     0.144 A 
ATOM      9  C   UNL     1     -44.581  46.356  20.550  1.00  0.00     0.077 A 
ATOM     10  C   UNL     1     -40.494  47.110  20.538  1.00  0.00     0.094 A 
ATOM     11  C   UNL     1     -41.270  47.198  21.677  1.00  0.00     0.133 A 
ATOM     12  C   UNL     1     -39.093  47.383  20.609  1.00  0.00     0.103 C 
ENDROOT
BRANCH   4  13
ATOM     13  N   UNL     1     -40.364  46.652  18.165  1.00  0.00    -0.354 N 
ATOM     14  H   UNL     1     -40.140  45.691  17.923  1.00  0.00     0.167 HD
BRANCH  13  15
ATOM     15  C   UNL     1     -39.874  47.616  17.273  1.00  0.00     0.040 A 
ATOM     16  C   UNL     1     -40.271  49.366  15.645  1.00  0.00     0.085 A 
ATOM     17  C   UNL     1     -40.759  48.407  16.532  1.00  0.00     0.050 A 
ATOM     18  C   UNL     1     -38.895  49.539  15.492  1.00  0.00     0.138 A 
ATOM     19  C   UNL     1     -38.008  48.753  16.227  1.00  0.00     0.050 A 
ATOM     20  C   UNL     1     -38.496  47.794  17.114  1.00  0.00     0.030 A 
ATOM     21  Cl  UNL     1     -41.391  50.325  14.749  1.00  0.00    -0.080 Cl
BRANCH  18  22
ATOM     22  O   UNL     1     -38.391  50.470  14.632  1.00  0.00    -0.486 OA
BRANCH  22  23
ATOM     23  C   UNL     1     -37.011  50.353  14.291  1.00  0.00     0.285 C 
BRANCH  23  24
ATOM     24  C   UNL     1     -36.287  51.582  14.757  1.00  0.00     0.078 A 
ATOM     25  N   UNL     1     -34.944  51.489  14.843  1.00  0.00    -0.258 NA
ATOM     26  C   UNL     1     -37.016  52.714  15.064  1.00  0.00     0.027 A 
ATOM     27  C   UNL     1     -34.298  52.599  15.263  1.00  0.00     0.111 A 
ATOM     28  C   UNL     1     -36.316  53.837  15.491  1.00  0.00     0.004 A 
ATOM     29  C   UNL     1     -34.930  53.785  15.596  1.00  0.00     0.020 A 
ENDBRANCH  23  24
ENDBRANCH  22  23
ENDBRANCH  18  22
ENDBRANCH  13  15
ENDBRANCH   4  13
BRANCH   7  30
ATOM     30  N   UNL     1     -45.198  45.521  17.002  1.00  0.00    -0.319 N 
ATOM     31  C   UNL     1     -45.877  46.353  16.102  1.00  0.00     0.248 C 
ATOM     32  O   UNL     1     -46.029  47.566  16.189  1.00  0.00    -0.270 OA
ATOM     33  H   UNL     1     -45.162  44.526  16.785  1.00  0.00     0.170 HD
BRANCH  31  34
ATOM     34  C   UNL     1     -46.438  45.581  14.955  1.00  0.00     0.068 C 
ATOM     35  C   UNL     1     -46.504  46.129  13.733  1.00  0.00    -0.006 C 
BRANCH  35  36
ATOM     36  C   UNL     1     -47.047  45.406  12.537  1.00  0.00     0.111 C 
BRANCH  36  37
ATOM     37  N   UNL     1     -48.361  45.912  12.156  1.00  0.00    -0.306 NA
ATOM     38  C   UNL     1     -49.352  44.835  12.178  1.00  0.00     0.105 C 
ATOM     39  C   UNL     1     -48.311  46.530  10.831  1.00  0.00     0.105 C 
ENDBRANCH  36  37
ENDBRANCH  35  36
ENDBRANCH  31  34
ENDBRANCH   7  30
BRANCH   8  40
ATOM     40  O   UNL     1     -46.591  45.757  19.427  1.00  0.00    -0.492 OA
BRANCH  40  41
ATOM     41  C   UNL     1     -47.227  45.900  20.695  1.00  0.00     0.226 C 
ATOM     42  C   UNL     1     -48.042  44.656  20.980  1.00  0.00     0.049 C 
ENDBRANCH  40  41
ENDBRANCH   8  40
TORSDOF 11
ENDMDL
MODEL 15
REMARK VINA RESULT:    -7.883      4.391      9.143
REMARK INTER + INTRA:         -14.605
REMARK INTER:                 -12.779
REMARK INTRA:                  -1.826
REMARK UNBOUND:                -1.653
REMARK SMILES CCOc1cc2ncc(C#N)c(Nc3ccc(OCc4ccccn4)c(Cl)c3)c2cc1NC(=O)/C=C/CN(C)C
REMARK SMILES IDX 7 1 11 2 29 3 12 4 6 5 30 6 31 7 4 8 5 9 9 10 8 11 10 12
REMARK SMILES IDX 13 13 14 15 26 16 28 17 17 18 16 19 15 20 27 21 18 22 19 23
REMARK SMILES IDX 20 24 25 25 21 26 24 27 22 28 23 29 32 30 33 31 34 32 35 34
REMARK SMILES IDX 36 35 37 36 38 37 39 38 40 39 3 40 2 41 1 42
REMARK H PARENT 13 14 32 33
ROOT
ATOM      1  N   UNL     1     -38.203  50.583  15.953  1.00  0.00    -0.255 NA
ATOM      2  N   UNL     1     -40.280  51.432  11.704  1.00  0.00    -0.192 NA
ATOM      3  C   UNL     1     -39.712  48.721  15.707  1.00  0.00     0.027 A 
ATOM      4  C   UNL     1     -40.129  49.230  14.469  1.00  0.00     0.068 A 
ATOM      5  C   UNL     1     -38.734  49.440  16.425  1.00  0.00     0.076 A 
ATOM      6  C   UNL     1     -40.245  47.530  16.230  1.00  0.00     0.042 A 
ATOM      7  C   UNL     1     -39.814  47.048  17.462  1.00  0.00     0.084 A 
ATOM      8  C   UNL     1     -38.850  47.751  18.175  1.00  0.00     0.144 A 
ATOM      9  C   UNL     1     -38.321  48.934  17.654  1.00  0.00     0.077 A 
ATOM     10  C   UNL     1     -39.583  50.408  13.979  1.00  0.00     0.094 A 
ATOM     11  C   UNL     1     -38.631  51.040  14.754  1.00  0.00     0.133 A 
ATOM     12  C   UNL     1     -39.968  50.974  12.724  1.00  0.00     0.103 C 
ENDROOT
BRANCH   4  13
ATOM     13  N   UNL     1     -41.110  48.551  13.700  1.00  0.00    -0.354 N 
ATOM     14  H   UNL     1     -40.705  47.895  13.038  1.00  0.00     0.167 HD
BRANCH  13  15
ATOM     15  C   UNL     1     -42.511  48.613  13.690  1.00  0.00     0.040 A 
ATOM     16  C   UNL     1     -44.655  47.794  14.465  1.00  0.00     0.085 A 
ATOM     17  C   UNL     1     -43.262  47.732  14.475  1.00  0.00     0.050 A 
ATOM     18  C   UNL     1     -45.306  48.737  13.668  1.00  0.00     0.138 A 
ATOM     19  C   UNL     1     -44.562  49.617  12.882  1.00  0.00     0.050 A 
ATOM     20  C   UNL     1     -43.169  49.555  12.892  1.00  0.00     0.030 A 
ATOM     21  Cl  UNL     1     -45.550  46.694  15.447  1.00  0.00    -0.080 Cl
BRANCH  18  22
ATOM     22  O   UNL     1     -46.666  48.820  13.638  1.00  0.00    -0.486 OA
BRANCH  22  23
ATOM     23  C   UNL     1     -47.295  48.671  12.367  1.00  0.00     0.285 C 
BRANCH  23  24
ATOM     24  C   UNL     1     -48.042  49.930  12.041  1.00  0.00     0.078 A 
ATOM     25  N   UNL     1     -49.234  50.094  12.651  1.00  0.00    -0.258 NA
ATOM     26  C   UNL     1     -47.483  50.833  11.157  1.00  0.00     0.027 A 
ATOM     27  C   UNL     1     -49.902  51.230  12.354  1.00  0.00     0.111 A 
ATOM     28  C   UNL     1     -48.200  51.991  10.877  1.00  0.00     0.004 A 
ATOM     29  C   UNL     1     -49.434  52.201  11.483  1.00  0.00     0.020 A 
ENDBRANCH  23  24
ENDBRANCH  22  23
ENDBRANCH  18  22
ENDBRANCH  13  15
ENDBRANCH   4  13
BRANCH   7  30
ATOM     30  N   UNL     1     -40.355  45.863  17.966  1.00  0.00    -0.319 N 
ATOM     31  C   UNL     1     -41.642  45.653  18.480  1.00  0.00     0.248 C 
ATOM     32  O   UNL     1     -42.540  46.480  18.585  1.00  0.00    -0.270 OA
ATOM     33  H   UNL     1     -39.721  45.067  17.949  1.00  0.00     0.170 HD
BRANCH  31  34
ATOM     34  C   UNL     1     -41.834  44.239  18.921  1.00  0.00     0.068 C 
ATOM     35  C   UNL     1     -42.036  43.950  20.214  1.00  0.00    -0.006 C 
BRANCH  35  36
ATOM     36  C   UNL     1     -42.244  42.556  20.722  1.00  0.00     0.111 C 
BRANCH  36  37
ATOM     37  N   UNL     1     -42.053  42.476  22.166  1.00  0.00    -0.306 NA
ATOM     38  C   UNL     1     -43.335  42.587  22.861  1.00  0.00     0.105 C 
ATOM     39  C   UNL     1     -41.135  43.521  22.621  1.00  0.00     0.105 C 
ENDBRANCH  36  37
ENDBRANCH  35  36
ENDBRANCH  31  34
ENDBRANCH   7  30
BRANCH   8  40
ATOM     40  O   UNL     1     -38.408  47.304  19.385  1.00  0.00    -0.492 OA
BRANCH  40  41
ATOM     41  C   UNL     1     -38.836  48.027  20.536  1.00  0.00     0.226 C 
ATOM     42  C   UNL     1     -39.638  47.104  21.429  1.00  0.00     0.049 C 
ENDBRANCH  40  41
ENDBRANCH   8  40
TORSDOF 11
ENDMDL
MODEL 16
REMARK VINA RESULT:    -7.821      4.535      9.102
REMARK INTER + INTRA:         -14.503
REMARK INTER:                 -12.987
REMARK INTRA:                  -1.516
REMARK UNBOUND:                -1.653
REMARK SMILES CCOc1cc2ncc(C#N)c(Nc3ccc(OCc4ccccn4)c(Cl)c3)c2cc1NC(=O)/C=C/CN(C)C
REMARK SMILES IDX 7 1 11 2 29 3 12 4 6 5 30 6 31 7 4 8 5 9 9 10 8 11 10 12
REMARK SMILES IDX 13 13 14 15 26 16 28 17 17 18 16 19 15 20 27 21 18 22 19 23
REMARK SMILES IDX 20 24 25 25 21 26 24 27 22 28 23 29 32 30 33 31 34 32 35 34
REMARK SMILES IDX 36 35 37 36 38 37 39 38 40 39 3 40 2 41 1 42
REMARK H PARENT 13 14 32 33
ROOT
ATOM      1  N   UNL     1     -41.841  50.662  12.988  1.00  0.00    -0.255 NA
ATOM      2  N   UNL     1     -38.065  49.067  15.495  1.00  0.00    -0.192 NA
ATOM      3  C   UNL     1     -42.758  48.812  14.229  1.00  0.00     0.027 A 
ATOM      4  C   UNL     1     -41.503  48.586  14.809  1.00  0.00     0.068 A 
ATOM      5  C   UNL     1     -42.885  49.875  13.311  1.00  0.00     0.076 A 
ATOM      6  C   UNL     1     -43.869  48.010  14.543  1.00  0.00     0.042 A 
ATOM      7  C   UNL     1     -45.105  48.255  13.951  1.00  0.00     0.084 A 
ATOM      8  C   UNL     1     -45.236  49.301  13.046  1.00  0.00     0.144 A 
ATOM      9  C   UNL     1     -44.132  50.098  12.735  1.00  0.00     0.077 A 
ATOM     10  C   UNL     1     -40.426  49.396  14.479  1.00  0.00     0.094 A 
ATOM     11  C   UNL     1     -40.647  50.412  13.571  1.00  0.00     0.133 A 
ATOM     12  C   UNL     1     -39.123  49.214  15.039  1.00  0.00     0.103 C 
ENDROOT
BRANCH   4  13
ATOM     13  N   UNL     1     -41.314  47.531  15.740  1.00  0.00    -0.354 N 
ATOM     14  H   UNL     1     -41.448  46.613  15.326  1.00  0.00     0.167 HD
BRANCH  13  15
ATOM     15  C   UNL     1     -40.976  47.523  17.101  1.00  0.00     0.040 A 
ATOM     16  C   UNL     1     -39.932  46.440  18.999  1.00  0.00     0.085 A 
ATOM     17  C   UNL     1     -40.268  46.447  17.646  1.00  0.00     0.050 A 
ATOM     18  C   UNL     1     -40.303  47.508  19.817  1.00  0.00     0.138 A 
ATOM     19  C   UNL     1     -41.010  48.584  19.279  1.00  0.00     0.050 A 
ATOM     20  C   UNL     1     -41.346  48.591  17.926  1.00  0.00     0.030 A 
ATOM     21  Cl  UNL     1     -39.057  45.096  19.638  1.00  0.00    -0.080 Cl
BRANCH  18  22
ATOM     22  O   UNL     1     -39.987  47.527  21.143  1.00  0.00    -0.486 OA
BRANCH  22  23
ATOM     23  C   UNL     1     -38.797  48.220  21.514  1.00  0.00     0.285 C 
BRANCH  23  24
ATOM     24  C   UNL     1     -37.756  47.219  21.920  1.00  0.00     0.078 A 
ATOM     25  N   UNL     1     -36.490  47.482  21.534  1.00  0.00    -0.258 NA
ATOM     26  C   UNL     1     -38.139  46.111  22.651  1.00  0.00     0.027 A 
ATOM     27  C   UNL     1     -35.557  46.577  21.903  1.00  0.00     0.111 A 
ATOM     28  C   UNL     1     -37.150  45.203  23.012  1.00  0.00     0.004 A 
ATOM     29  C   UNL     1     -35.832  45.434  22.635  1.00  0.00     0.020 A 
ENDBRANCH  23  24
ENDBRANCH  22  23
ENDBRANCH  18  22
ENDBRANCH  13  15
ENDBRANCH   4  13
BRANCH   7  30
ATOM     30  N   UNL     1     -46.197  47.447  14.275  1.00  0.00    -0.319 N 
ATOM     31  C   UNL     1     -46.322  46.061  14.115  1.00  0.00     0.248 C 
ATOM     32  O   UNL     1     -45.487  45.292  13.653  1.00  0.00    -0.270 OA
ATOM     33  H   UNL     1     -46.989  47.947  14.676  1.00  0.00     0.170 HD
BRANCH  31  34
ATOM     34  C   UNL     1     -47.653  45.571  14.584  1.00  0.00     0.068 C 
ATOM     35  C   UNL     1     -48.294  46.194  15.583  1.00  0.00    -0.006 C 
BRANCH  35  36
ATOM     36  C   UNL     1     -49.634  45.760  16.095  1.00  0.00     0.111 C 
BRANCH  36  37
ATOM     37  N   UNL     1     -49.855  46.208  17.466  1.00  0.00    -0.306 NA
ATOM     38  C   UNL     1     -50.003  47.663  17.513  1.00  0.00     0.105 C 
ATOM     39  C   UNL     1     -48.754  45.781  18.331  1.00  0.00     0.105 C 
ENDBRANCH  36  37
ENDBRANCH  35  36
ENDBRANCH  31  34
ENDBRANCH   7  30
BRANCH   8  40
ATOM     40  O   UNL     1     -46.433  49.566  12.450  1.00  0.00    -0.492 OA
BRANCH  40  41
ATOM     41  C   UNL     1     -46.393  50.110  11.132  1.00  0.00     0.226 C 
ATOM     42  C   UNL     1     -47.414  51.223  11.027  1.00  0.00     0.049 C 
ENDBRANCH  40  41
ENDBRANCH   8  40
TORSDOF 11
ENDMDL
MODEL 17
REMARK VINA RESULT:    -7.767      3.601      8.507
REMARK INTER + INTRA:         -14.414
REMARK INTER:                 -12.468
REMARK INTRA:                  -1.946
REMARK UNBOUND:                -1.653
REMARK SMILES CCOc1cc2ncc(C#N)c(Nc3ccc(OCc4ccccn4)c(Cl)c3)c2cc1NC(=O)/C=C/CN(C)C
REMARK SMILES IDX 7 1 11 2 29 3 12 4 6 5 30 6 31 7 4 8 5 9 9 10 8 11 10 12
REMARK SMILES IDX 13 13 14 15 26 16 28 17 17 18 16 19 15 20 27 21 18 22 19 23
REMARK SMILES IDX 20 24 25 25 21 26 24 27 22 28 23 29 32 30 33 31 34 32 35 34
REMARK SMILES IDX 36 35 37 36 38 37 39 38 40 39 3 40 2 41 1 42
REMARK H PARENT 13 14 32 33
ROOT
ATOM      1  N   UNL     1     -39.585  51.126  13.762  1.00  0.00    -0.255 NA
ATOM      2  N   UNL     1     -35.108  50.780  15.470  1.00  0.00    -0.192 NA
ATOM      3  C   UNL     1     -39.732  49.273  15.295  1.00  0.00     0.027 A 
ATOM      4  C   UNL     1     -38.372  49.421  15.596  1.00  0.00     0.068 A 
ATOM      5  C   UNL     1     -40.307  50.159  14.359  1.00  0.00     0.076 A 
ATOM      6  C   UNL     1     -40.515  48.275  15.900  1.00  0.00     0.042 A 
ATOM      7  C   UNL     1     -41.865  48.148  15.582  1.00  0.00     0.084 A 
ATOM      8  C   UNL     1     -42.436  49.018  14.661  1.00  0.00     0.144 A 
ATOM      9  C   UNL     1     -41.658  50.011  14.060  1.00  0.00     0.077 A 
ATOM     10  C   UNL     1     -37.626  50.418  14.983  1.00  0.00     0.094 A 
ATOM     11  C   UNL     1     -38.276  51.237  14.081  1.00  0.00     0.133 A 
ATOM     12  C   UNL     1     -36.236  50.618  15.251  1.00  0.00     0.103 C 
ENDROOT
BRANCH   4  13
ATOM     13  N   UNL     1     -37.738  48.561  16.530  1.00  0.00    -0.354 N 
ATOM     14  H   UNL     1     -36.786  48.327  16.264  1.00  0.00     0.167 HD
BRANCH  13  15
ATOM     15  C   UNL     1     -38.174  47.989  17.734  1.00  0.00     0.040 A 
ATOM     16  C   UNL     1     -38.859  48.226  20.045  1.00  0.00     0.085 A 
ATOM     17  C   UNL     1     -38.426  48.796  18.848  1.00  0.00     0.050 A 
ATOM     18  C   UNL     1     -39.043  46.846  20.135  1.00  0.00     0.138 A 
ATOM     19  C   UNL     1     -38.793  46.036  19.027  1.00  0.00     0.050 A 
ATOM     20  C   UNL     1     -38.360  46.606  17.830  1.00  0.00     0.030 A 
ATOM     21  Cl  UNL     1     -39.161  49.251  21.399  1.00  0.00    -0.080 Cl
BRANCH  18  22
ATOM     22  O   UNL     1     -39.466  46.262  21.292  1.00  0.00    -0.486 OA
BRANCH  22  23
ATOM     23  C   UNL     1     -40.875  46.192  21.503  1.00  0.00     0.285 C 
BRANCH  23  24
ATOM     24  C   UNL     1     -41.298  44.753  21.502  1.00  0.00     0.078 A 
ATOM     25  N   UNL     1     -41.221  44.106  22.682  1.00  0.00    -0.258 NA
ATOM     26  C   UNL     1     -41.734  44.182  20.322  1.00  0.00     0.027 A 
ATOM     27  C   UNL     1     -41.604  42.810  22.676  1.00  0.00     0.111 A 
ATOM     28  C   UNL     1     -42.120  42.847  20.354  1.00  0.00     0.004 A 
ATOM     29  C   UNL     1     -42.057  42.141  21.551  1.00  0.00     0.020 A 
ENDBRANCH  23  24
ENDBRANCH  22  23
ENDBRANCH  18  22
ENDBRANCH  13  15
ENDBRANCH   4  13
BRANCH   7  30
ATOM     30  N   UNL     1     -42.627  47.150  16.192  1.00  0.00    -0.319 N 
ATOM     31  C   UNL     1     -43.269  47.194  17.436  1.00  0.00     0.248 C 
ATOM     32  O   UNL     1     -43.280  48.129  18.229  1.00  0.00    -0.270 OA
ATOM     33  H   UNL     1     -42.713  46.292  15.650  1.00  0.00     0.170 HD
BRANCH  31  34
ATOM     34  C   UNL     1     -43.984  45.917  17.732  1.00  0.00     0.068 C 
ATOM     35  C   UNL     1     -44.606  45.741  18.907  1.00  0.00    -0.006 C 
BRANCH  35  36
ATOM     36  C   UNL     1     -45.349  44.490  19.263  1.00  0.00     0.111 C 
BRANCH  36  37
ATOM     37  N   UNL     1     -45.895  44.557  20.615  1.00  0.00    -0.306 NA
ATOM     38  C   UNL     1     -44.988  45.289  21.499  1.00  0.00     0.105 C 
ATOM     39  C   UNL     1     -46.140  43.212  21.138  1.00  0.00     0.105 C 
ENDBRANCH  36  37
ENDBRANCH  35  36
ENDBRANCH  31  34
ENDBRANCH   7  30
BRANCH   8  40
ATOM     40  O   UNL     1     -43.755  48.919  14.328  1.00  0.00    -0.492 OA
BRANCH  40  41
ATOM     41  C   UNL     1     -44.154  49.499  13.089  1.00  0.00     0.226 C 
ATOM     42  C   UNL     1     -45.579  49.086  12.787  1.00  0.00     0.049 C 
ENDBRANCH  40  41
ENDBRANCH   8  40
TORSDOF 11
ENDMDL
MODEL 18
REMARK VINA RESULT:    -7.766      3.759      9.699
REMARK INTER + INTRA:         -14.414
REMARK INTER:                 -12.846
REMARK INTRA:                  -1.567
REMARK UNBOUND:                -1.653
REMARK SMILES CCOc1cc2ncc(C#N)c(Nc3ccc(OCc4ccccn4)c(Cl)c3)c2cc1NC(=O)/C=C/CN(C)C
REMARK SMILES IDX 7 1 11 2 29 3 12 4 6 5 30 6 31 7 4 8 5 9 9 10 8 11 10 12
REMARK SMILES IDX 13 13 14 15 26 16 28 17 17 18 16 19 15 20 27 21 18 22 19 23
REMARK SMILES IDX 20 24 25 25 21 26 24 27 22 28 23 29 32 30 33 31 34 32 35 34
REMARK SMILES IDX 36 35 37 36 38 37 39 38 40 39 3 40 2 41 1 42
REMARK H PARENT 13 14 32 33
ROOT
ATOM      1  N   UNL     1     -40.184  44.468  22.866  1.00  0.00    -0.255 NA
ATOM      2  N   UNL     1     -44.171  42.374  21.190  1.00  0.00    -0.192 NA
ATOM      3  C   UNL     1     -40.192  45.102  20.542  1.00  0.00     0.027 A 
ATOM      4  C   UNL     1     -41.383  44.389  20.356  1.00  0.00     0.068 A 
ATOM      5  C   UNL     1     -39.619  45.116  21.830  1.00  0.00     0.076 A 
ATOM      6  C   UNL     1     -39.575  45.790  19.483  1.00  0.00     0.042 A 
ATOM      7  C   UNL     1     -38.390  46.492  19.694  1.00  0.00     0.084 A 
ATOM      8  C   UNL     1     -37.821  46.509  20.961  1.00  0.00     0.144 A 
ATOM      9  C   UNL     1     -38.435  45.826  22.013  1.00  0.00     0.077 A 
ATOM     10  C   UNL     1     -41.969  43.720  21.423  1.00  0.00     0.094 A 
ATOM     11  C   UNL     1     -41.335  43.792  22.646  1.00  0.00     0.133 A 
ATOM     12  C   UNL     1     -43.184  42.977  21.294  1.00  0.00     0.103 C 
ENDROOT
BRANCH   4  13
ATOM     13  N   UNL     1     -42.008  44.338  19.083  1.00  0.00    -0.354 N 
ATOM     14  H   UNL     1     -41.828  43.468  18.591  1.00  0.00     0.167 HD
BRANCH  13  15
ATOM     15  C   UNL     1     -42.820  45.250  18.393  1.00  0.00     0.040 A 
ATOM     16  C   UNL     1     -43.067  47.288  17.108  1.00  0.00     0.085 A 
ATOM     17  C   UNL     1     -42.258  46.382  17.794  1.00  0.00     0.050 A 
ATOM     18  C   UNL     1     -44.442  47.068  17.017  1.00  0.00     0.138 A 
ATOM     19  C   UNL     1     -45.007  45.941  17.614  1.00  0.00     0.050 A 
ATOM     20  C   UNL     1     -44.199  45.035  18.300  1.00  0.00     0.030 A 
ATOM     21  Cl  UNL     1     -42.341  48.674  16.379  1.00  0.00    -0.080 Cl
BRANCH  18  22
ATOM     22  O   UNL     1     -45.255  47.937  16.353  1.00  0.00    -0.486 OA
BRANCH  22  23
ATOM     23  C   UNL     1     -46.095  47.388  15.338  1.00  0.00     0.285 C 
BRANCH  23  24
ATOM     24  C   UNL     1     -45.932  48.192  14.082  1.00  0.00     0.078 A 
ATOM     25  N   UNL     1     -46.969  48.172  13.220  1.00  0.00    -0.258 NA
ATOM     26  C   UNL     1     -44.758  48.893  13.881  1.00  0.00     0.027 A 
ATOM     27  C   UNL     1     -46.816  48.897  12.090  1.00  0.00     0.111 A 
ATOM     28  C   UNL     1     -44.638  49.628  12.708  1.00  0.00     0.004 A 
ATOM     29  C   UNL     1     -45.683  49.635  11.790  1.00  0.00     0.020 A 
ENDBRANCH  23  24
ENDBRANCH  22  23
ENDBRANCH  18  22
ENDBRANCH  13  15
ENDBRANCH   4  13
BRANCH   7  30
ATOM     30  N   UNL     1     -37.791  47.168  18.629  1.00  0.00    -0.319 N 
ATOM     31  C   UNL     1     -38.313  48.229  17.878  1.00  0.00     0.248 C 
ATOM     32  O   UNL     1     -39.407  48.764  18.016  1.00  0.00    -0.270 OA
ATOM     33  H   UNL     1     -36.860  46.835  18.386  1.00  0.00     0.170 HD
BRANCH  31  34
ATOM     34  C   UNL     1     -37.358  48.678  16.822  1.00  0.00     0.068 C 
ATOM     35  C   UNL     1     -37.609  49.780  16.101  1.00  0.00    -0.006 C 
BRANCH  35  36
ATOM     36  C   UNL     1     -36.688  50.290  15.033  1.00  0.00     0.111 C 
BRANCH  36  37
ATOM     37  N   UNL     1     -37.174  51.541  14.460  1.00  0.00    -0.306 NA
ATOM     38  C   UNL     1     -37.364  52.546  15.506  1.00  0.00     0.105 C 
ATOM     39  C   UNL     1     -38.424  51.322  13.731  1.00  0.00     0.105 C 
ENDBRANCH  36  37
ENDBRANCH  35  36
ENDBRANCH  31  34
ENDBRANCH   7  30
BRANCH   8  40
ATOM     40  O   UNL     1     -36.662  47.186  21.199  1.00  0.00    -0.492 OA
BRANCH  40  41
ATOM     41  C   UNL     1     -35.764  46.617  22.150  1.00  0.00     0.226 C 
ATOM     42  C   UNL     1     -34.387  46.519  21.529  1.00  0.00     0.049 C 
ENDBRANCH  40  41
ENDBRANCH   8  40
TORSDOF 11
ENDMDL
MODEL 19
REMARK VINA RESULT:    -7.758      4.611      8.667
REMARK INTER + INTRA:         -14.400
REMARK INTER:                 -13.206
REMARK INTRA:                  -1.195
REMARK UNBOUND:                -1.653
REMARK SMILES CCOc1cc2ncc(C#N)c(Nc3ccc(OCc4ccccn4)c(Cl)c3)c2cc1NC(=O)/C=C/CN(C)C
REMARK SMILES IDX 7 1 11 2 29 3 12 4 6 5 30 6 31 7 4 8 5 9 9 10 8 11 10 12
REMARK SMILES IDX 13 13 14 15 26 16 28 17 17 18 16 19 15 20 27 21 18 22 19 23
REMARK SMILES IDX 20 24 25 25 21 26 24 27 22 28 23 29 32 30 33 31 34 32 35 34
REMARK SMILES IDX 36 35 37 36 38 37 39 38 40 39 3 40 2 41 1 42
REMARK H PARENT 13 14 32 33
ROOT
ATOM      1  N   UNL     1     -45.208  46.201  18.122  1.00  0.00    -0.255 NA
ATOM      2  N   UNL     1     -40.511  45.277  18.538  1.00  0.00    -0.192 NA
ATOM      3  C   UNL     1     -44.300  47.074  16.068  1.00  0.00     0.027 A 
ATOM      4  C   UNL     1     -43.019  46.680  16.473  1.00  0.00     0.068 A 
ATOM      5  C   UNL     1     -45.382  46.812  16.935  1.00  0.00     0.076 A 
ATOM      6  C   UNL     1     -44.518  47.714  14.835  1.00  0.00     0.042 A 
ATOM      7  C   UNL     1     -45.802  48.096  14.457  1.00  0.00     0.084 A 
ATOM      8  C   UNL     1     -46.872  47.841  15.307  1.00  0.00     0.144 A 
ATOM      9  C   UNL     1     -46.655  47.204  16.532  1.00  0.00     0.077 A 
ATOM     10  C   UNL     1     -42.836  46.049  17.696  1.00  0.00     0.094 A 
ATOM     11  C   UNL     1     -43.955  45.835  18.476  1.00  0.00     0.133 A 
ATOM     12  C   UNL     1     -41.553  45.623  18.161  1.00  0.00     0.103 C 
ENDROOT
BRANCH   4  13
ATOM     13  N   UNL     1     -41.891  46.916  15.643  1.00  0.00    -0.354 N 
ATOM     14  H   UNL     1     -41.703  46.146  15.008  1.00  0.00     0.167 HD
BRANCH  13  15
ATOM     15  C   UNL     1     -41.009  48.000  15.535  1.00  0.00     0.040 A 
ATOM     16  C   UNL     1     -39.032  49.182  16.285  1.00  0.00     0.085 A 
ATOM     17  C   UNL     1     -39.909  48.103  16.393  1.00  0.00     0.050 A 
ATOM     18  C   UNL     1     -39.250  50.165  15.319  1.00  0.00     0.138 A 
ATOM     19  C   UNL     1     -40.345  50.068  14.461  1.00  0.00     0.050 A 
ATOM     20  C   UNL     1     -41.222  48.989  14.569  1.00  0.00     0.030 A 
ATOM     21  Cl  UNL     1     -37.685  49.277  17.359  1.00  0.00    -0.080 Cl
BRANCH  18  22
ATOM     22  O   UNL     1     -38.408  51.230  15.190  1.00  0.00    -0.486 OA
BRANCH  22  23
ATOM     23  C   UNL     1     -37.280  51.063  14.334  1.00  0.00     0.285 C 
BRANCH  23  24
ATOM     24  C   UNL     1     -36.119  51.824  14.901  1.00  0.00     0.078 A 
ATOM     25  N   UNL     1     -34.976  51.130  15.077  1.00  0.00    -0.258 NA
ATOM     26  C   UNL     1     -36.278  53.163  15.205  1.00  0.00     0.027 A 
ATOM     27  C   UNL     1     -33.934  51.821  15.588  1.00  0.00     0.111 A 
ATOM     28  C   UNL     1     -35.182  53.840  15.728  1.00  0.00     0.004 A 
ATOM     29  C   UNL     1     -33.984  53.163  15.926  1.00  0.00     0.020 A 
ENDBRANCH  23  24
ENDBRANCH  22  23
ENDBRANCH  18  22
ENDBRANCH  13  15
ENDBRANCH   4  13
BRANCH   7  30
ATOM     30  N   UNL     1     -45.999  48.732  13.229  1.00  0.00    -0.319 N 
ATOM     31  C   UNL     1     -45.126  49.595  12.555  1.00  0.00     0.248 C 
ATOM     32  O   UNL     1     -44.015  49.958  12.924  1.00  0.00    -0.270 OA
ATOM     33  H   UNL     1     -46.893  48.529  12.786  1.00  0.00     0.170 HD
BRANCH  31  34
ATOM     34  C   UNL     1     -45.708  50.068  11.264  1.00  0.00     0.068 C 
ATOM     35  C   UNL     1     -46.741  50.921  11.254  1.00  0.00    -0.006 C 
BRANCH  35  36
ATOM     36  C   UNL     1     -47.366  51.441   9.995  1.00  0.00     0.111 C 
BRANCH  36  37
ATOM     37  N   UNL     1     -48.808  51.222   9.981  1.00  0.00    -0.306 NA
ATOM     38  C   UNL     1     -49.153  50.028  10.754  1.00  0.00     0.105 C 
ATOM     39  C   UNL     1     -49.297  51.097   8.607  1.00  0.00     0.105 C 
ENDBRANCH  36  37
ENDBRANCH  35  36
ENDBRANCH  31  34
ENDBRANCH   7  30
BRANCH   8  40
ATOM     40  O   UNL     1     -48.141  48.204  14.966  1.00  0.00    -0.492 OA
BRANCH  40  41
ATOM     41  C   UNL     1     -48.738  49.255  15.721  1.00  0.00     0.226 C 
ATOM     42  C   UNL     1     -50.028  48.751  16.333  1.00  0.00     0.049 C 
ENDBRANCH  40  41
ENDBRANCH   8  40
TORSDOF 11
ENDMDL
MODEL 20
REMARK VINA RESULT:    -7.742      4.635      8.683
REMARK INTER + INTRA:         -14.373
REMARK INTER:                 -12.430
REMARK INTRA:                  -1.943
REMARK UNBOUND:                -1.653
REMARK SMILES CCOc1cc2ncc(C#N)c(Nc3ccc(OCc4ccccn4)c(Cl)c3)c2cc1NC(=O)/C=C/CN(C)C
REMARK SMILES IDX 7 1 11 2 29 3 12 4 6 5 30 6 31 7 4 8 5 9 9 10 8 11 10 12
REMARK SMILES IDX 13 13 14 15 26 16 28 17 17 18 16 19 15 20 27 21 18 22 19 23
REMARK SMILES IDX 20 24 25 25 21 26 24 27 22 28 23 29 32 30 33 31 34 32 35 34
REMARK SMILES IDX 36 35 37 36 38 37 39 38 40 39 3 40 2 41 1 42
REMARK H PARENT 13 14 32 33
ROOT
ATOM      1  N   UNL     1     -42.429  49.909  12.515  1.00  0.00    -0.255 NA
ATOM      2  N   UNL     1     -38.390  50.654  15.008  1.00  0.00    -0.192 NA
ATOM      3  C   UNL     1     -43.047  49.262  14.752  1.00  0.00     0.027 A 
ATOM      4  C   UNL     1     -41.754  49.572  15.193  1.00  0.00     0.068 A 
ATOM      5  C   UNL     1     -43.346  49.447  13.386  1.00  0.00     0.076 A 
ATOM      6  C   UNL     1     -44.029  48.778  15.635  1.00  0.00     0.042 A 
ATOM      7  C   UNL     1     -45.306  48.477  15.170  1.00  0.00     0.084 A 
ATOM      8  C   UNL     1     -45.607  48.658  13.826  1.00  0.00     0.144 A 
ATOM      9  C   UNL     1     -44.631  49.139  12.949  1.00  0.00     0.077 A 
ATOM     10  C   UNL     1     -40.806  50.048  14.297  1.00  0.00     0.094 A 
ATOM     11  C   UNL     1     -41.192  50.198  12.981  1.00  0.00     0.133 A 
ATOM     12  C   UNL     1     -39.472  50.382  14.689  1.00  0.00     0.103 C 
ENDROOT
BRANCH   4  13
ATOM     13  N   UNL     1     -41.393  49.406  16.556  1.00  0.00    -0.354 N 
ATOM     14  H   UNL     1     -41.652  50.203  17.130  1.00  0.00     0.167 HD
BRANCH  13  15
ATOM     15  C   UNL     1     -40.762  48.361  17.245  1.00  0.00     0.040 A 
ATOM     16  C   UNL     1     -40.819  46.130  18.187  1.00  0.00     0.085 A 
ATOM     17  C   UNL     1     -41.448  47.169  17.501  1.00  0.00     0.050 A 
ATOM     18  C   UNL     1     -39.501  46.277  18.622  1.00  0.00     0.138 A 
ATOM     19  C   UNL     1     -38.813  47.463  18.371  1.00  0.00     0.050 A 
ATOM     20  C   UNL     1     -39.441  48.502  17.685  1.00  0.00     0.030 A 
ATOM     21  Cl  UNL     1     -41.694  44.673  18.484  1.00  0.00    -0.080 Cl
BRANCH  18  22
ATOM     22  O   UNL     1     -38.862  45.277  19.294  1.00  0.00    -0.486 OA
BRANCH  22  23
ATOM     23  C   UNL     1     -39.112  45.178  20.695  1.00  0.00     0.285 C 
BRANCH  23  24
ATOM     24  C   UNL     1     -37.920  45.698  21.442  1.00  0.00     0.078 A 
ATOM     25  N   UNL     1     -36.844  44.886  21.492  1.00  0.00    -0.258 NA
ATOM     26  C   UNL     1     -37.985  46.950  22.022  1.00  0.00     0.027 A 
ATOM     27  C   UNL     1     -35.773  45.360  22.166  1.00  0.00     0.111 A 
ATOM     28  C   UNL     1     -36.864  47.404  22.706  1.00  0.00     0.004 A 
ATOM     29  C   UNL     1     -35.732  46.599  22.784  1.00  0.00     0.020 A 
ENDBRANCH  23  24
ENDBRANCH  22  23
ENDBRANCH  18  22
ENDBRANCH  13  15
ENDBRANCH   4  13
BRANCH   7  30
ATOM     30  N   UNL     1     -46.268  47.997  16.061  1.00  0.00    -0.319 N 
ATOM     31  C   UNL     1     -46.509  46.669  16.438  1.00  0.00     0.248 C 
ATOM     32  O   UNL     1     -45.913  45.671  16.049  1.00  0.00    -0.270 OA
ATOM     33  H   UNL     1     -46.856  48.717  16.477  1.00  0.00     0.170 HD
BRANCH  31  34
ATOM     34  C   UNL     1     -47.631  46.570  17.418  1.00  0.00     0.068 C 
ATOM     35  C   UNL     1     -48.576  47.519  17.469  1.00  0.00    -0.006 C 
BRANCH  35  36
ATOM     36  C   UNL     1     -49.733  47.476  18.421  1.00  0.00     0.111 C 
BRANCH  36  37
ATOM     37  N   UNL     1     -50.143  48.816  18.827  1.00  0.00    -0.306 NA
ATOM     38  C   UNL     1     -49.668  49.812  17.866  1.00  0.00     0.105 C 
ATOM     39  C   UNL     1     -49.643  49.123  20.167  1.00  0.00     0.105 C 
ENDBRANCH  36  37
ENDBRANCH  35  36
ENDBRANCH  31  34
ENDBRANCH   7  30
BRANCH   8  40
ATOM     40  O   UNL     1     -46.848  48.371  13.340  1.00  0.00    -0.492 OA
BRANCH  40  41
ATOM     41  C   UNL     1     -46.920  47.465  12.243  1.00  0.00     0.226 C 
ATOM     42  C   UNL     1     -47.361  46.109  12.751  1.00  0.00     0.049 C 
ENDBRANCH  40  41
ENDBRANCH   8  40
TORSDOF 11
ENDMDL
