MODEL 1
REMARK VINA RESULT:    -9.525      0.000      0.000
REMARK INTER + INTRA:         -10.960
REMARK INTER:                 -10.638
REMARK INTRA:                  -0.322
REMARK UNBOUND:                -0.322
REMARK SMILES O=C(N[C@H]1CN2CCC1CC2)c1cc2cccc(Cl)c2s1
REMARK SMILES IDX 12 1 13 2 14 3 20 4 18 5 17 6 16 7 15 8 21 9 19 10 2 11 3 12
REMARK SMILES IDX 1 13 4 15 9 16 5 17 8 18 10 19 6 20 7 21 11 22
REMARK H PARENT 3 14
ROOT
ATOM      1  C   UNL     1     143.892 138.490  90.707  1.00  0.00     0.093 A 
ATOM      2  C   UNL     1     143.400 137.264  90.998  1.00  0.00     0.034 A 
ATOM      3  C   UNL     1     144.302 136.213  91.375  1.00  0.00    -0.005 A 
ATOM      4  C   UNL     1     145.679 136.627  91.396  1.00  0.00     0.054 A 
ATOM      5  C   UNL     1     146.657 135.725  91.740  1.00  0.00     0.058 A 
ATOM      6  C   UNL     1     146.308 134.411  92.068  1.00  0.00     0.022 A 
ATOM      7  C   UNL     1     144.961 134.010  92.046  1.00  0.00     0.002 A 
ATOM      8  C   UNL     1     143.967 134.924  91.696  1.00  0.00     0.010 A 
ATOM      9  S   UNL     1     145.617 138.377  90.907  1.00  0.00    -0.128 S 
ATOM     10  Cl  UNL     1     148.367 136.228  91.768  1.00  0.00    -0.083 Cl
ENDROOT
BRANCH   1  11
ATOM     11  C   UNL     1     143.065 139.712  90.288  1.00  0.00     0.261 C 
ATOM     12  N   UNL     1     141.620 139.631  90.206  1.00  0.00    -0.347 N 
ATOM     13  O   UNL     1     143.614 140.728  90.028  1.00  0.00    -0.268 OA
ATOM     14  H   UNL     1     141.157 138.788  90.418  1.00  0.00     0.164 HD
BRANCH  12  15
ATOM     15  C   UNL     1     140.846 140.825  89.799  1.00  0.00     0.099 C 
ATOM     16  C   UNL     1     139.603 140.900  90.562  1.00  0.00     0.015 C 
ATOM     17  C   UNL     1     140.487 140.734  88.302  1.00  0.00     0.109 C 
ATOM     18  C   UNL     1     138.857 142.041  90.111  1.00  0.00     0.021 C 
ATOM     19  C   UNL     1     138.820 139.698  90.284  1.00  0.00     0.021 C 
ATOM     20  N   UNL     1     139.104 140.779  88.110  1.00  0.00    -0.301 NA
ATOM     21  C   UNL     1     138.583 141.939  88.640  1.00  0.00     0.085 C 
ATOM     22  C   UNL     1     138.499 139.664  88.741  1.00  0.00     0.085 C 
ENDBRANCH  12  15
ENDBRANCH   1  11
TORSDOF 2
ENDMDL
MODEL 2
REMARK VINA RESULT:    -8.600      1.327      1.869
REMARK INTER + INTRA:          -9.928
REMARK INTER:                  -9.626
REMARK INTRA:                  -0.302
REMARK UNBOUND:                -0.322
REMARK SMILES O=C(N[C@H]1CN2CCC1CC2)c1cc2cccc(Cl)c2s1
REMARK SMILES IDX 12 1 13 2 14 3 20 4 18 5 17 6 16 7 15 8 21 9 19 10 2 11 3 12
REMARK SMILES IDX 1 13 4 15 9 16 5 17 8 18 10 19 6 20 7 21 11 22
REMARK H PARENT 3 14
ROOT
ATOM      1  C   UNL     1     144.199 138.646  90.668  1.00  0.00     0.093 A 
ATOM      2  C   UNL     1     145.534 138.700  90.884  1.00  0.00     0.034 A 
ATOM      3  C   UNL     1     146.225 137.522  91.326  1.00  0.00    -0.005 A 
ATOM      4  C   UNL     1     145.361 136.383  91.485  1.00  0.00     0.054 A 
ATOM      5  C   UNL     1     145.886 135.183  91.903  1.00  0.00     0.058 A 
ATOM      6  C   UNL     1     147.254 135.077  92.169  1.00  0.00     0.022 A 
ATOM      7  C   UNL     1     148.095 136.192  92.014  1.00  0.00     0.002 A 
ATOM      8  C   UNL     1     147.565 137.412  91.590  1.00  0.00     0.010 A 
ATOM      9  S   UNL     1     143.718 137.013  91.029  1.00  0.00    -0.128 S 
ATOM     10  Cl  UNL     1     144.824 133.765  92.104  1.00  0.00    -0.083 Cl
ENDROOT
BRANCH   1  11
ATOM     11  C   UNL     1     143.320 139.811  90.200  1.00  0.00     0.261 C 
ATOM     12  N   UNL     1     141.881 139.656  90.102  1.00  0.00    -0.347 N 
ATOM     13  O   UNL     1     143.821 140.845  89.913  1.00  0.00    -0.268 OA
ATOM     14  H   UNL     1     141.457 138.799  90.336  1.00  0.00     0.164 HD
BRANCH  12  15
ATOM     15  C   UNL     1     141.055 140.797  89.646  1.00  0.00     0.099 C 
ATOM     16  C   UNL     1     139.834 140.880  90.443  1.00  0.00     0.015 C 
ATOM     17  C   UNL     1     140.654 140.599  88.171  1.00  0.00     0.109 C 
ATOM     18  C   UNL     1     139.037 141.966  89.946  1.00  0.00     0.021 C 
ATOM     19  C   UNL     1     139.085 139.639  90.266  1.00  0.00     0.021 C 
ATOM     20  N   UNL     1     139.265 140.588  88.021  1.00  0.00    -0.301 NA
ATOM     21  C   UNL     1     138.722 141.763  88.493  1.00  0.00     0.085 C 
ATOM     22  C   UNL     1     138.717 139.497  88.740  1.00  0.00     0.085 C 
ENDBRANCH  12  15
ENDBRANCH   1  11
TORSDOF 2
ENDMDL
MODEL 3
REMARK VINA RESULT:    -7.716      1.777      2.270
REMARK INTER + INTRA:          -8.940
REMARK INTER:                  -8.627
REMARK INTRA:                  -0.313
REMARK UNBOUND:                -0.322
REMARK SMILES O=C(N[C@H]1CN2CCC1CC2)c1cc2cccc(Cl)c2s1
REMARK SMILES IDX 12 1 13 2 14 3 20 4 18 5 17 6 16 7 15 8 21 9 19 10 2 11 3 12
REMARK SMILES IDX 1 13 4 15 9 16 5 17 8 18 10 19 6 20 7 21 11 22
REMARK H PARENT 3 14
ROOT
ATOM      1  C   UNL     1     142.385 137.009  90.880  1.00  0.00     0.093 A 
ATOM      2  C   UNL     1     142.771 135.738  91.135  1.00  0.00     0.034 A 
ATOM      3  C   UNL     1     144.132 135.475  91.508  1.00  0.00    -0.005 A 
ATOM      4  C   UNL     1     144.944 136.661  91.567  1.00  0.00     0.054 A 
ATOM      5  C   UNL     1     146.270 136.562  91.912  1.00  0.00     0.058 A 
ATOM      6  C   UNL     1     146.822 135.311  92.205  1.00  0.00     0.022 A 
ATOM      7  C   UNL     1     146.025 134.154  92.146  1.00  0.00     0.002 A 
ATOM      8  C   UNL     1     144.678 134.252  91.795  1.00  0.00     0.010 A 
ATOM      9  S   UNL     1     143.798 137.998  91.114  1.00  0.00    -0.128 S 
ATOM     10  Cl  UNL     1     147.286 138.025  91.987  1.00  0.00    -0.083 Cl
ENDROOT
BRANCH   1  11
ATOM     11  C   UNL     1     140.976 137.453  90.470  1.00  0.00     0.261 C 
ATOM     12  N   UNL     1     140.665 138.860  90.308  1.00  0.00    -0.347 N 
ATOM     13  O   UNL     1     140.135 136.639  90.288  1.00  0.00    -0.268 OA
ATOM     14  H   UNL     1     141.357 139.543  90.460  1.00  0.00     0.164 HD
BRANCH  12  15
ATOM     15  C   UNL     1     139.296 139.262  89.911  1.00  0.00     0.099 C 
ATOM     16  C   UNL     1     139.273 139.638  88.501  1.00  0.00     0.015 C 
ATOM     17  C   UNL     1     138.844 140.480  90.741  1.00  0.00     0.109 C 
ATOM     18  C   UNL     1     137.945 140.064  88.162  1.00  0.00     0.021 C 
ATOM     19  C   UNL     1     140.182 140.766  88.312  1.00  0.00     0.021 C 
ATOM     20  N   UNL     1     138.521 141.561  89.918  1.00  0.00    -0.301 NA
ATOM     21  C   UNL     1     137.524 141.210  89.034  1.00  0.00     0.085 C 
ATOM     22  C   UNL     1     139.668 141.967  89.193  1.00  0.00     0.085 C 
ENDBRANCH  12  15
ENDBRANCH   1  11
TORSDOF 2
ENDMDL
MODEL 4
REMARK VINA RESULT:    -7.242      1.610      1.952
REMARK INTER + INTRA:          -8.411
REMARK INTER:                  -8.078
REMARK INTRA:                  -0.333
REMARK UNBOUND:                -0.322
REMARK SMILES O=C(N[C@H]1CN2CCC1CC2)c1cc2cccc(Cl)c2s1
REMARK SMILES IDX 12 1 13 2 14 3 20 4 18 5 17 6 16 7 15 8 21 9 19 10 2 11 3 12
REMARK SMILES IDX 1 13 4 15 9 16 5 17 8 18 10 19 6 20 7 21 11 22
REMARK H PARENT 3 14
ROOT
ATOM      1  C   UNL     1     144.270 139.064  91.059  1.00  0.00     0.093 A 
ATOM      2  C   UNL     1     144.488 137.748  90.834  1.00  0.00     0.034 A 
ATOM      3  C   UNL     1     145.833 137.248  90.817  1.00  0.00    -0.005 A 
ATOM      4  C   UNL     1     146.820 138.266  91.057  1.00  0.00     0.054 A 
ATOM      5  C   UNL     1     148.153 137.933  91.071  1.00  0.00     0.058 A 
ATOM      6  C   UNL     1     148.542 136.608  90.853  1.00  0.00     0.022 A 
ATOM      7  C   UNL     1     147.574 135.616  90.618  1.00  0.00     0.002 A 
ATOM      8  C   UNL     1     146.220 135.952  90.603  1.00  0.00     0.010 A 
ATOM      9  S   UNL     1     145.840 139.782  91.277  1.00  0.00    -0.128 S 
ATOM     10  Cl  UNL     1     149.385 139.188  91.367  1.00  0.00    -0.083 Cl
ENDROOT
BRANCH   1  11
ATOM     11  C   UNL     1     142.900 139.751  91.106  1.00  0.00     0.261 C 
ATOM     12  N   UNL     1     141.993 139.665  89.978  1.00  0.00    -0.347 N 
ATOM     13  O   UNL     1     142.583 140.359  92.071  1.00  0.00    -0.268 OA
ATOM     14  H   UNL     1     142.251 139.164  89.171  1.00  0.00     0.164 HD
BRANCH  12  15
ATOM     15  C   UNL     1     140.676 140.338  90.049  1.00  0.00     0.099 C 
ATOM     16  C   UNL     1     139.647 139.381  90.444  1.00  0.00     0.015 C 
ATOM     17  C   UNL     1     140.301 140.907  88.666  1.00  0.00     0.109 C 
ATOM     18  C   UNL     1     138.378 140.055  90.458  1.00  0.00     0.021 C 
ATOM     19  C   UNL     1     139.594 138.322  89.439  1.00  0.00     0.021 C 
ATOM     20  N   UNL     1     139.091 140.375  88.212  1.00  0.00    -0.301 NA
ATOM     21  C   UNL     1     138.082 140.643  89.111  1.00  0.00     0.085 C 
ATOM     22  C   UNL     1     139.217 138.973  88.054  1.00  0.00     0.085 C 
ENDBRANCH  12  15
ENDBRANCH   1  11
TORSDOF 2
ENDMDL
MODEL 5
REMARK VINA RESULT:    -7.175      3.834      4.568
REMARK INTER + INTRA:          -8.336
REMARK INTER:                  -8.020
REMARK INTRA:                  -0.316
REMARK UNBOUND:                -0.322
REMARK SMILES O=C(N[C@H]1CN2CCC1CC2)c1cc2cccc(Cl)c2s1
REMARK SMILES IDX 12 1 13 2 14 3 20 4 18 5 17 6 16 7 15 8 21 9 19 10 2 11 3 12
REMARK SMILES IDX 1 13 4 15 9 16 5 17 8 18 10 19 6 20 7 21 11 22
REMARK H PARENT 3 14
ROOT
ATOM      1  C   UNL     1     143.900 140.276  92.451  1.00  0.00     0.093 A 
ATOM      2  C   UNL     1     143.447 140.148  93.719  1.00  0.00     0.034 A 
ATOM      3  C   UNL     1     144.241 140.646  94.806  1.00  0.00    -0.005 A 
ATOM      4  C   UNL     1     145.475 141.248  94.378  1.00  0.00     0.054 A 
ATOM      5  C   UNL     1     146.338 141.770  95.311  1.00  0.00     0.058 A 
ATOM      6  C   UNL     1     146.011 141.714  96.670  1.00  0.00     0.022 A 
ATOM      7  C   UNL     1     144.805 141.125  97.084  1.00  0.00     0.002 A 
ATOM      8  C   UNL     1     143.927 140.593  96.139  1.00  0.00     0.010 A 
ATOM      9  S   UNL     1     145.439 141.080  92.568  1.00  0.00    -0.128 S 
ATOM     10  Cl  UNL     1     147.871 142.518  94.792  1.00  0.00    -0.083 Cl
ENDROOT
BRANCH   1  11
ATOM     11  C   UNL     1     143.176 139.797  91.188  1.00  0.00     0.261 C 
ATOM     12  N   UNL     1     141.880 140.339  90.830  1.00  0.00    -0.347 N 
ATOM     13  O   UNL     1     143.679 138.974  90.500  1.00  0.00    -0.268 OA
ATOM     14  H   UNL     1     141.453 141.021  91.397  1.00  0.00     0.164 HD
BRANCH  12  15
ATOM     15  C   UNL     1     141.202 139.859  89.604  1.00  0.00     0.099 C 
ATOM     16  C   UNL     1     140.626 140.986  88.877  1.00  0.00     0.015 C 
ATOM     17  C   UNL     1     140.060 138.894  89.980  1.00  0.00     0.109 C 
ATOM     18  C   UNL     1     139.939 140.481  87.721  1.00  0.00     0.021 C 
ATOM     19  C   UNL     1     139.650 141.642  89.743  1.00  0.00     0.021 C 
ATOM     20  N   UNL     1     138.831 139.352  89.498  1.00  0.00    -0.301 NA
ATOM     21  C   UNL     1     138.878 139.502  88.129  1.00  0.00     0.085 C 
ATOM     22  C   UNL     1     138.521 140.599  90.094  1.00  0.00     0.085 C 
ENDBRANCH  12  15
ENDBRANCH   1  11
TORSDOF 2
ENDMDL
MODEL 6
REMARK VINA RESULT:    -6.998      3.662      8.021
REMARK INTER + INTRA:          -8.138
REMARK INTER:                  -7.877
REMARK INTRA:                  -0.262
REMARK UNBOUND:                -0.322
REMARK SMILES O=C(N[C@H]1CN2CCC1CC2)c1cc2cccc(Cl)c2s1
REMARK SMILES IDX 12 1 13 2 14 3 20 4 18 5 17 6 16 7 15 8 21 9 19 10 2 11 3 12
REMARK SMILES IDX 1 13 4 15 9 16 5 17 8 18 10 19 6 20 7 21 11 22
REMARK H PARENT 3 14
ROOT
ATOM      1  C   UNL     1     144.121 138.988  90.869  1.00  0.00     0.093 A 
ATOM      2  C   UNL     1     143.392 140.052  90.462  1.00  0.00     0.034 A 
ATOM      3  C   UNL     1     141.998 139.882  90.167  1.00  0.00    -0.005 A 
ATOM      4  C   UNL     1     141.538 138.532  90.357  1.00  0.00     0.054 A 
ATOM      5  C   UNL     1     140.223 138.219  90.113  1.00  0.00     0.058 A 
ATOM      6  C   UNL     1     139.339 139.214  89.683  1.00  0.00     0.022 A 
ATOM      7  C   UNL     1     139.791 140.532  89.498  1.00  0.00     0.002 A 
ATOM      8  C   UNL     1     141.127 140.851  89.745  1.00  0.00     0.010 A 
ATOM      9  S   UNL     1     143.023 137.638  90.907  1.00  0.00    -0.128 S 
ATOM     10  Cl  UNL     1     139.643 136.549  90.343  1.00  0.00    -0.083 Cl
ENDROOT
BRANCH   1  11
ATOM     11  C   UNL     1     145.613 139.004  91.219  1.00  0.00     0.261 C 
ATOM     12  N   UNL     1     146.382 137.775  91.229  1.00  0.00    -0.347 N 
ATOM     13  O   UNL     1     146.141 140.030  91.487  1.00  0.00    -0.268 OA
ATOM     14  H   UNL     1     145.950 136.918  91.011  1.00  0.00     0.164 HD
BRANCH  12  15
ATOM     15  C   UNL     1     147.822 137.819  91.571  1.00  0.00     0.099 C 
ATOM     16  C   UNL     1     148.614 138.066  90.370  1.00  0.00     0.015 C 
ATOM     17  C   UNL     1     148.262 136.468  92.169  1.00  0.00     0.109 C 
ATOM     18  C   UNL     1     150.004 138.057  90.729  1.00  0.00     0.021 C 
ATOM     19  C   UNL     1     148.374 136.974  89.429  1.00  0.00     0.021 C 
ATOM     20  N   UNL     1     149.293 135.895  91.420  1.00  0.00    -0.301 NA
ATOM     21  C   UNL     1     150.374 136.747  91.361  1.00  0.00     0.085 C 
ATOM     22  C   UNL     1     148.835 135.628  90.106  1.00  0.00     0.085 C 
ENDBRANCH  12  15
ENDBRANCH   1  11
TORSDOF 2
ENDMDL
MODEL 7
REMARK VINA RESULT:    -6.910      3.916      7.971
REMARK INTER + INTRA:          -8.041
REMARK INTER:                  -7.716
REMARK INTRA:                  -0.324
REMARK UNBOUND:                -0.322
REMARK SMILES O=C(N[C@H]1CN2CCC1CC2)c1cc2cccc(Cl)c2s1
REMARK SMILES IDX 12 1 13 2 14 3 20 4 18 5 17 6 16 7 15 8 21 9 19 10 2 11 3 12
REMARK SMILES IDX 1 13 4 15 9 16 5 17 8 18 10 19 6 20 7 21 11 22
REMARK H PARENT 3 14
ROOT
ATOM      1  C   UNL     1     144.082 138.644  91.301  1.00  0.00     0.093 A 
ATOM      2  C   UNL     1     143.152 137.671  91.160  1.00  0.00     0.034 A 
ATOM      3  C   UNL     1     141.864 137.999  90.620  1.00  0.00    -0.005 A 
ATOM      4  C   UNL     1     141.728 139.390  90.281  1.00  0.00     0.054 A 
ATOM      5  C   UNL     1     140.546 139.850  89.752  1.00  0.00     0.058 A 
ATOM      6  C   UNL     1     139.484 138.964  89.545  1.00  0.00     0.022 A 
ATOM      7  C   UNL     1     139.621 137.605  89.878  1.00  0.00     0.002 A 
ATOM      8  C   UNL     1     140.820 137.136  90.416  1.00  0.00     0.010 A 
ATOM      9  S   UNL     1     143.338 140.108  90.725  1.00  0.00    -0.128 S 
ATOM     10  Cl  UNL     1     140.366 141.573  89.330  1.00  0.00    -0.083 Cl
ENDROOT
BRANCH   1  11
ATOM     11  C   UNL     1     145.497 138.458  91.861  1.00  0.00     0.261 C 
ATOM     12  N   UNL     1     146.451 137.601  91.184  1.00  0.00    -0.347 N 
ATOM     13  O   UNL     1     145.811 139.017  92.856  1.00  0.00    -0.268 OA
ATOM     14  H   UNL     1     146.196 137.131  90.357  1.00  0.00     0.164 HD
BRANCH  12  15
ATOM     15  C   UNL     1     147.811 137.439  91.746  1.00  0.00     0.099 C 
ATOM     16  C   UNL     1     148.786 138.118  90.898  1.00  0.00     0.015 C 
ATOM     17  C   UNL     1     148.181 135.943  91.802  1.00  0.00     0.109 C 
ATOM     18  C   UNL     1     150.097 137.902  91.446  1.00  0.00     0.021 C 
ATOM     19  C   UNL     1     148.738 137.516  89.568  1.00  0.00     0.021 C 
ATOM     20  N   UNL     1     149.338 135.680  91.065  1.00  0.00    -0.301 NA
ATOM     21  C   UNL     1     150.390 136.434  91.539  1.00  0.00     0.085 C 
ATOM     22  C   UNL     1     149.116 135.992  89.702  1.00  0.00     0.085 C 
ENDBRANCH  12  15
ENDBRANCH   1  11
TORSDOF 2
ENDMDL
MODEL 8
REMARK VINA RESULT:    -6.894      1.960      2.713
REMARK INTER + INTRA:          -8.022
REMARK INTER:                  -7.685
REMARK INTRA:                  -0.337
REMARK UNBOUND:                -0.322
REMARK SMILES O=C(N[C@H]1CN2CCC1CC2)c1cc2cccc(Cl)c2s1
REMARK SMILES IDX 12 1 13 2 14 3 20 4 18 5 17 6 16 7 15 8 21 9 19 10 2 11 3 12
REMARK SMILES IDX 1 13 4 15 9 16 5 17 8 18 10 19 6 20 7 21 11 22
REMARK H PARENT 3 14
ROOT
ATOM      1  C   UNL     1     142.516 137.212  90.849  1.00  0.00     0.093 A 
ATOM      2  C   UNL     1     143.525 138.074  91.112  1.00  0.00     0.034 A 
ATOM      3  C   UNL     1     144.815 137.560  91.475  1.00  0.00    -0.005 A 
ATOM      4  C   UNL     1     144.866 136.123  91.509  1.00  0.00     0.054 A 
ATOM      5  C   UNL     1     146.039 135.490  91.840  1.00  0.00     0.058 A 
ATOM      6  C   UNL     1     147.177 136.245  92.141  1.00  0.00     0.022 A 
ATOM      7  C   UNL     1     147.124 137.649  92.108  1.00  0.00     0.002 A 
ATOM      8  C   UNL     1     145.933 138.294  91.772  1.00  0.00     0.010 A 
ATOM      9  S   UNL     1     143.180 135.616  91.054  1.00  0.00    -0.128 S 
ATOM     10  Cl  UNL     1     146.112 133.709  91.886  1.00  0.00    -0.083 Cl
ENDROOT
BRANCH   1  11
ATOM     11  C   UNL     1     141.087 137.599  90.452  1.00  0.00     0.261 C 
ATOM     12  N   UNL     1     140.717 138.992  90.295  1.00  0.00    -0.347 N 
ATOM     13  O   UNL     1     140.278 136.752  90.276  1.00  0.00    -0.268 OA
ATOM     14  H   UNL     1     141.383 139.702  90.442  1.00  0.00     0.164 HD
BRANCH  12  15
ATOM     15  C   UNL     1     139.330 139.338  89.911  1.00  0.00     0.099 C 
ATOM     16  C   UNL     1     139.280 139.718  88.502  1.00  0.00     0.015 C 
ATOM     17  C   UNL     1     138.836 140.534  90.750  1.00  0.00     0.109 C 
ATOM     18  C   UNL     1     137.932 140.091  88.176  1.00  0.00     0.021 C 
ATOM     19  C   UNL     1     140.140 140.883  88.310  1.00  0.00     0.021 C 
ATOM     20  N   UNL     1     138.462 141.604  89.933  1.00  0.00    -0.301 NA
ATOM     21  C   UNL     1     137.473 141.216  89.056  1.00  0.00     0.085 C 
ATOM     22  C   UNL     1     139.585 142.059  89.200  1.00  0.00     0.085 C 
ENDBRANCH  12  15
ENDBRANCH   1  11
TORSDOF 2
ENDMDL
MODEL 9
REMARK VINA RESULT:    -6.584      5.439      7.856
REMARK INTER + INTRA:          -7.676
REMARK INTER:                  -7.375
REMARK INTRA:                  -0.300
REMARK UNBOUND:                -0.322
REMARK SMILES O=C(N[C@H]1CN2CCC1CC2)c1cc2cccc(Cl)c2s1
REMARK SMILES IDX 12 1 13 2 14 3 20 4 18 5 17 6 16 7 15 8 21 9 19 10 2 11 3 12
REMARK SMILES IDX 1 13 4 15 9 16 5 17 8 18 10 19 6 20 7 21 11 22
REMARK H PARENT 3 14
ROOT
ATOM      1  C   UNL     1     144.328 141.029  94.835  1.00  0.00     0.093 A 
ATOM      2  C   UNL     1     142.999 140.865  95.031  1.00  0.00     0.034 A 
ATOM      3  C   UNL     1     142.330 141.654  96.026  1.00  0.00    -0.005 A 
ATOM      4  C   UNL     1     143.208 142.561  96.716  1.00  0.00     0.054 A 
ATOM      5  C   UNL     1     142.705 143.381  97.697  1.00  0.00     0.058 A 
ATOM      6  C   UNL     1     141.345 143.330  98.018  1.00  0.00     0.022 A 
ATOM      7  C   UNL     1     140.491 142.442  97.342  1.00  0.00     0.002 A 
ATOM      8  C   UNL     1     140.999 141.608  96.346  1.00  0.00     0.010 A 
ATOM      9  S   UNL     1     144.833 142.258  95.959  1.00  0.00    -0.128 S 
ATOM     10  Cl  UNL     1     143.784 144.508  98.560  1.00  0.00    -0.083 Cl
ENDROOT
BRANCH   1  11
ATOM     11  C   UNL     1     145.185 140.266  93.818  1.00  0.00     0.261 C 
ATOM     12  N   UNL     1     144.586 139.275  92.945  1.00  0.00    -0.347 N 
ATOM     13  O   UNL     1     146.346 140.488  93.748  1.00  0.00    -0.268 OA
ATOM     14  H   UNL     1     143.622 139.084  92.999  1.00  0.00     0.164 HD
BRANCH  12  15
ATOM     15  C   UNL     1     145.437 138.553  91.972  1.00  0.00     0.099 C 
ATOM     16  C   UNL     1     144.656 138.203  90.789  1.00  0.00     0.015 C 
ATOM     17  C   UNL     1     145.967 137.250  92.602  1.00  0.00     0.109 C 
ATOM     18  C   UNL     1     145.497 137.465  89.888  1.00  0.00     0.021 C 
ATOM     19  C   UNL     1     143.555 137.337  91.205  1.00  0.00     0.021 C 
ATOM     20  N   UNL     1     145.580 136.133  91.857  1.00  0.00    -0.301 NA
ATOM     21  C   UNL     1     146.038 136.239  90.562  1.00  0.00     0.085 C 
ATOM     22  C   UNL     1     144.167 136.034  91.846  1.00  0.00     0.085 C 
ENDBRANCH  12  15
ENDBRANCH   1  11
TORSDOF 2
ENDMDL
MODEL 10
REMARK VINA RESULT:    -6.553      3.453      7.807
REMARK INTER + INTRA:          -7.642
REMARK INTER:                  -7.326
REMARK INTRA:                  -0.315
REMARK UNBOUND:                -0.322
REMARK SMILES O=C(N[C@H]1CN2CCC1CC2)c1cc2cccc(Cl)c2s1
REMARK SMILES IDX 12 1 13 2 14 3 20 4 18 5 17 6 16 7 15 8 21 9 19 10 2 11 3 12
REMARK SMILES IDX 1 13 4 15 9 16 5 17 8 18 10 19 6 20 7 21 11 22
REMARK H PARENT 3 14
ROOT
ATOM      1  C   UNL     1     142.849 139.965  90.274  1.00  0.00     0.093 A 
ATOM      2  C   UNL     1     141.758 140.279  91.010  1.00  0.00     0.034 A 
ATOM      3  C   UNL     1     140.482 140.398  90.365  1.00  0.00    -0.005 A 
ATOM      4  C   UNL     1     140.537 140.152  88.949  1.00  0.00     0.054 A 
ATOM      5  C   UNL     1     139.388 140.230  88.199  1.00  0.00     0.058 A 
ATOM      6  C   UNL     1     138.174 140.547  88.816  1.00  0.00     0.022 A 
ATOM      7  C   UNL     1     138.125 140.788  90.199  1.00  0.00     0.002 A 
ATOM      8  C   UNL     1     139.290 140.710  90.963  1.00  0.00     0.010 A 
ATOM      9  S   UNL     1     142.291 139.791  88.635  1.00  0.00    -0.128 S 
ATOM     10  Cl  UNL     1     139.445 139.928  86.442  1.00  0.00    -0.083 Cl
ENDROOT
BRANCH   1  11
ATOM     11  C   UNL     1     144.276 139.804  90.811  1.00  0.00     0.261 C 
ATOM     12  N   UNL     1     144.866 138.487  90.952  1.00  0.00    -0.347 N 
ATOM     13  O   UNL     1     144.900 140.764  91.114  1.00  0.00    -0.268 OA
ATOM     14  H   UNL     1     144.354 137.684  90.704  1.00  0.00     0.164 HD
BRANCH  12  15
ATOM     15  C   UNL     1     146.246 138.359  91.473  1.00  0.00     0.099 C 
ATOM     16  C   UNL     1     147.176 138.117  90.373  1.00  0.00     0.015 C 
ATOM     17  C   UNL     1     146.332 137.167  92.446  1.00  0.00     0.109 C 
ATOM     18  C   UNL     1     148.495 137.953  90.916  1.00  0.00     0.021 C 
ATOM     19  C   UNL     1     146.791 136.873  89.712  1.00  0.00     0.021 C 
ATOM     20  N   UNL     1     147.279 136.232  92.019  1.00  0.00    -0.301 NA
ATOM     21  C   UNL     1     148.518 136.823  91.902  1.00  0.00     0.085 C 
ATOM     22  C   UNL     1     146.892 135.703  90.763  1.00  0.00     0.085 C 
ENDBRANCH  12  15
ENDBRANCH   1  11
TORSDOF 2
ENDMDL
MODEL 11
REMARK VINA RESULT:    -6.551      2.587      3.651
REMARK INTER + INTRA:          -7.639
REMARK INTER:                  -7.317
REMARK INTRA:                  -0.322
REMARK UNBOUND:                -0.322
REMARK SMILES O=C(N[C@H]1CN2CCC1CC2)c1cc2cccc(Cl)c2s1
REMARK SMILES IDX 12 1 13 2 14 3 20 4 18 5 17 6 16 7 15 8 21 9 19 10 2 11 3 12
REMARK SMILES IDX 1 13 4 15 9 16 5 17 8 18 10 19 6 20 7 21 11 22
REMARK H PARENT 3 14
ROOT
ATOM      1  C   UNL     1     143.956 139.314  91.067  1.00  0.00     0.093 A 
ATOM      2  C   UNL     1     144.423 140.394  91.736  1.00  0.00     0.034 A 
ATOM      3  C   UNL     1     145.834 140.533  91.954  1.00  0.00    -0.005 A 
ATOM      4  C   UNL     1     146.604 139.451  91.401  1.00  0.00     0.054 A 
ATOM      5  C   UNL     1     147.972 139.451  91.533  1.00  0.00     0.058 A 
ATOM      6  C   UNL     1     148.607 140.502  92.202  1.00  0.00     0.022 A 
ATOM      7  C   UNL     1     147.852 141.557  92.742  1.00  0.00     0.002 A 
ATOM      8  C   UNL     1     146.463 141.559  92.610  1.00  0.00     0.010 A 
ATOM      9  S   UNL     1     145.354 138.364  90.652  1.00  0.00    -0.128 S 
ATOM     10  Cl  UNL     1     148.935 138.114  90.852  1.00  0.00    -0.083 Cl
ENDROOT
BRANCH   1  11
ATOM     11  C   UNL     1     142.485 139.020  90.756  1.00  0.00     0.261 C 
ATOM     12  N   UNL     1     141.550 140.103  90.518  1.00  0.00    -0.347 N 
ATOM     13  O   UNL     1     142.109 137.898  90.712  1.00  0.00    -0.268 OA
ATOM     14  H   UNL     1     141.854 141.038  90.555  1.00  0.00     0.164 HD
BRANCH  12  15
ATOM     15  C   UNL     1     140.134 139.790  90.220  1.00  0.00     0.099 C 
ATOM     16  C   UNL     1     139.904 139.838  88.779  1.00  0.00     0.015 C 
ATOM     17  C   UNL     1     139.214 140.830  90.889  1.00  0.00     0.109 C 
ATOM     18  C   UNL     1     138.514 139.577  88.528  1.00  0.00     0.021 C 
ATOM     19  C   UNL     1     140.211 141.187  88.310  1.00  0.00     0.021 C 
ATOM     20  N   UNL     1     138.419 141.485  89.945  1.00  0.00    -0.301 NA
ATOM     21  C   UNL     1     137.656 140.575  89.247  1.00  0.00     0.085 C 
ATOM     22  C   UNL     1     139.244 142.196  89.039  1.00  0.00     0.085 C 
ENDBRANCH  12  15
ENDBRANCH   1  11
TORSDOF 2
ENDMDL
MODEL 12
REMARK VINA RESULT:    -6.546      5.314      7.968
REMARK INTER + INTRA:          -7.634
REMARK INTER:                  -7.308
REMARK INTRA:                  -0.325
REMARK UNBOUND:                -0.322
REMARK SMILES O=C(N[C@H]1CN2CCC1CC2)c1cc2cccc(Cl)c2s1
REMARK SMILES IDX 12 1 13 2 14 3 20 4 18 5 17 6 16 7 15 8 21 9 19 10 2 11 3 12
REMARK SMILES IDX 1 13 4 15 9 16 5 17 8 18 10 19 6 20 7 21 11 22
REMARK H PARENT 3 14
ROOT
ATOM      1  C   UNL     1     145.159 140.678  93.849  1.00  0.00     0.093 A 
ATOM      2  C   UNL     1     143.861 140.513  94.194  1.00  0.00     0.034 A 
ATOM      3  C   UNL     1     143.330 141.241  95.311  1.00  0.00    -0.005 A 
ATOM      4  C   UNL     1     144.299 142.094  95.946  1.00  0.00     0.054 A 
ATOM      5  C   UNL     1     143.932 142.853  97.031  1.00  0.00     0.058 A 
ATOM      6  C   UNL     1     142.620 142.793  97.511  1.00  0.00     0.022 A 
ATOM      7  C   UNL     1     141.676 141.958  96.889  1.00  0.00     0.002 A 
ATOM      8  C   UNL     1     142.047 141.186  95.787  1.00  0.00     0.010 A 
ATOM      9  S   UNL     1     145.816 141.827  94.980  1.00  0.00    -0.128 S 
ATOM     10  Cl  UNL     1     145.126 143.912  97.826  1.00  0.00    -0.083 Cl
ENDROOT
BRANCH   1  11
ATOM     11  C   UNL     1     145.874 139.976  92.690  1.00  0.00     0.261 C 
ATOM     12  N   UNL     1     146.189 138.562  92.764  1.00  0.00    -0.347 N 
ATOM     13  O   UNL     1     146.175 140.595  91.726  1.00  0.00    -0.268 OA
ATOM     14  H   UNL     1     145.945 138.041  93.563  1.00  0.00     0.164 HD
BRANCH  12  15
ATOM     15  C   UNL     1     146.881 137.909  91.630  1.00  0.00     0.099 C 
ATOM     16  C   UNL     1     145.909 137.236  90.773  1.00  0.00     0.015 C 
ATOM     17  C   UNL     1     147.872 136.852  92.156  1.00  0.00     0.109 C 
ATOM     18  C   UNL     1     146.616 136.576  89.711  1.00  0.00     0.021 C 
ATOM     19  C   UNL     1     145.220 136.222  91.567  1.00  0.00     0.021 C 
ATOM     20  N   UNL     1     147.578 135.585  91.647  1.00  0.00    -0.301 NA
ATOM     21  C   UNL     1     147.611 135.602  90.270  1.00  0.00     0.085 C 
ATOM     22  C   UNL     1     146.290 135.184  92.080  1.00  0.00     0.085 C 
ENDBRANCH  12  15
ENDBRANCH   1  11
TORSDOF 2
ENDMDL
