MODEL 1
REMARK VINA RESULT:    -8.137      0.000      0.000
REMARK INTER + INTRA:         -10.332
REMARK INTER:                  -9.564
REMARK INTRA:                  -0.768
REMARK UNBOUND:                -0.768
REMARK SMILES O=c1[nH]c(Cc2ccccn2)nc2c1cnn2C1CCOCC1
REMARK SMILES IDX 17 1 13 2 14 3 15 4 16 5 2 6 1 7 3 8 4 9 12 10 18 12 19 13
REMARK SMILES IDX 20 14 21 15 23 16 22 17 5 18 6 19 7 20 11 21 8 22 10 23 9 24
REMARK H PARENT 3 11
ROOT
ATOM      1  N   UNL     1      78.030  52.289  43.552  1.00  0.00    -0.244 N 
ATOM      2  C   UNL     1      78.756  51.685  42.559  1.00  0.00     0.165 A 
ATOM      3  C   UNL     1      77.962  51.729  41.438  1.00  0.00     0.104 A 
ATOM      4  C   UNL     1      76.784  52.367  41.833  1.00  0.00     0.151 A 
ATOM      5  N   UNL     1      76.812  52.716  43.126  1.00  0.00    -0.178 NA
ATOM      6  C   UNL     1      78.449  51.161  40.217  1.00  0.00     0.262 A 
ATOM      7  O   UNL     1      77.807  51.108  39.175  1.00  0.00    -0.269 OA
ATOM      8  N   UNL     1      79.730  50.664  40.350  1.00  0.00    -0.310 N 
ATOM      9  C   UNL     1      80.439  50.646  41.546  1.00  0.00     0.117 A 
ATOM     10  N   UNL     1      79.998  51.151  42.666  1.00  0.00    -0.215 NA
ATOM     11  H   UNL     1      80.111  50.171  39.547  1.00  0.00     0.171 HD
ENDROOT
BRANCH   1  12
ATOM     12  C   UNL     1      78.404  52.503  44.943  1.00  0.00     0.114 C 
ATOM     13  C   UNL     1      78.766  53.961  45.240  1.00  0.00     0.056 C 
ATOM     14  C   UNL     1      79.135  54.111  46.707  1.00  0.00     0.162 C 
ATOM     15  O   UNL     1      78.078  53.643  47.543  1.00  0.00    -0.381 OA
ATOM     16  C   UNL     1      77.350  51.987  45.928  1.00  0.00     0.056 C 
ATOM     17  C   UNL     1      77.804  52.256  47.354  1.00  0.00     0.162 C 
ENDBRANCH   1  12
BRANCH   9  18
ATOM     18  C   UNL     1      81.816  50.029  41.472  1.00  0.00     0.131 C 
BRANCH  18  19
ATOM     19  C   UNL     1      82.141  49.557  40.080  1.00  0.00     0.048 A 
ATOM     20  C   UNL     1      82.077  48.208  39.747  1.00  0.00     0.024 A 
ATOM     21  N   UNL     1      82.453  50.523  39.173  1.00  0.00    -0.261 NA
ATOM     22  C   UNL     1      82.362  47.829  38.439  1.00  0.00     0.003 A 
ATOM     23  C   UNL     1      82.727  50.120  37.912  1.00  0.00     0.111 A 
ATOM     24  C   UNL     1      82.695  48.799  37.501  1.00  0.00     0.020 A 
ENDBRANCH  18  19
ENDBRANCH   9  18
TORSDOF 3
ENDMDL
MODEL 2
REMARK VINA RESULT:    -8.014      4.953      9.500
REMARK INTER + INTRA:         -10.188
REMARK INTER:                  -9.287
REMARK INTRA:                  -0.900
REMARK UNBOUND:                -0.768
REMARK SMILES O=c1[nH]c(Cc2ccccn2)nc2c1cnn2C1CCOCC1
REMARK SMILES IDX 17 1 13 2 14 3 15 4 16 5 2 6 1 7 3 8 4 9 12 10 18 12 19 13
REMARK SMILES IDX 20 14 21 15 23 16 22 17 5 18 6 19 7 20 11 21 8 22 10 23 9 24
REMARK H PARENT 3 11
ROOT
ATOM      1  N   UNL     1      82.469  49.019  34.307  1.00  0.00    -0.244 N 
ATOM      2  C   UNL     1      82.857  48.831  35.608  1.00  0.00     0.165 A 
ATOM      3  C   UNL     1      84.216  49.038  35.624  1.00  0.00     0.104 A 
ATOM      4  C   UNL     1      84.570  49.341  34.308  1.00  0.00     0.151 A 
ATOM      5  N   UNL     1      83.509  49.335  33.490  1.00  0.00    -0.178 NA
ATOM      6  C   UNL     1      84.925  48.905  36.862  1.00  0.00     0.262 A 
ATOM      7  O   UNL     1      86.138  49.024  36.979  1.00  0.00    -0.269 OA
ATOM      8  N   UNL     1      84.082  48.612  37.915  1.00  0.00    -0.310 N 
ATOM      9  C   UNL     1      82.714  48.396  37.782  1.00  0.00     0.117 A 
ATOM     10  N   UNL     1      82.062  48.504  36.657  1.00  0.00    -0.215 NA
ATOM     11  H   UNL     1      84.524  48.421  38.810  1.00  0.00     0.171 HD
ENDROOT
BRANCH   1  12
ATOM     12  C   UNL     1      81.134  48.916  33.737  1.00  0.00     0.114 C 
ATOM     13  C   UNL     1      80.311  50.194  33.923  1.00  0.00     0.056 C 
ATOM     14  C   UNL     1      78.936  50.017  33.298  1.00  0.00     0.162 C 
ATOM     15  O   UNL     1      79.051  49.652  31.923  1.00  0.00    -0.381 OA
ATOM     16  C   UNL     1      81.145  48.478  32.269  1.00  0.00     0.056 C 
ATOM     17  C   UNL     1      79.720  48.405  31.744  1.00  0.00     0.162 C 
ENDBRANCH   1  12
BRANCH   9  18
ATOM     18  C   UNL     1      81.985  48.060  39.062  1.00  0.00     0.131 C 
BRANCH  18  19
ATOM     19  C   UNL     1      81.491  49.297  39.763  1.00  0.00     0.048 A 
ATOM     20  C   UNL     1      80.194  49.369  40.260  1.00  0.00     0.024 A 
ATOM     21  N   UNL     1      82.392  50.306  39.913  1.00  0.00    -0.261 NA
ATOM     22  C   UNL     1      79.796  50.527  40.923  1.00  0.00     0.003 A 
ATOM     23  C   UNL     1      81.972  51.417  40.559  1.00  0.00     0.111 A 
ATOM     24  C   UNL     1      80.698  51.573  41.075  1.00  0.00     0.020 A 
ENDBRANCH  18  19
ENDBRANCH   9  18
TORSDOF 3
ENDMDL
MODEL 3
REMARK VINA RESULT:    -7.951      4.987      9.767
REMARK INTER + INTRA:         -10.114
REMARK INTER:                  -9.341
REMARK INTRA:                  -0.772
REMARK UNBOUND:                -0.768
REMARK SMILES O=c1[nH]c(Cc2ccccn2)nc2c1cnn2C1CCOCC1
REMARK SMILES IDX 17 1 13 2 14 3 15 4 16 5 2 6 1 7 3 8 4 9 12 10 18 12 19 13
REMARK SMILES IDX 20 14 21 15 23 16 22 17 5 18 6 19 7 20 11 21 8 22 10 23 9 24
REMARK H PARENT 3 11
ROOT
ATOM      1  N   UNL     1      82.039  49.317  33.819  1.00  0.00    -0.244 N 
ATOM      2  C   UNL     1      82.112  49.548  35.168  1.00  0.00     0.165 A 
ATOM      3  C   UNL     1      83.451  49.670  35.453  1.00  0.00     0.104 A 
ATOM      4  C   UNL     1      84.115  49.501  34.236  1.00  0.00     0.151 A 
ATOM      5  N   UNL     1      83.262  49.285  33.226  1.00  0.00    -0.178 NA
ATOM      6  C   UNL     1      83.855  49.913  36.805  1.00  0.00     0.262 A 
ATOM      7  O   UNL     1      85.020  49.994  37.174  1.00  0.00    -0.269 OA
ATOM      8  N   UNL     1      82.775  50.033  37.657  1.00  0.00    -0.310 N 
ATOM      9  C   UNL     1      81.451  49.865  37.265  1.00  0.00     0.117 A 
ATOM     10  N   UNL     1      81.075  49.632  36.038  1.00  0.00    -0.215 NA
ATOM     11  H   UNL     1      82.986  50.124  38.647  1.00  0.00     0.171 HD
ENDROOT
BRANCH   1  12
ATOM     12  C   UNL     1      80.854  49.109  33.000  1.00  0.00     0.114 C 
ATOM     13  C   UNL     1      80.076  50.402  32.745  1.00  0.00     0.056 C 
ATOM     14  C   UNL     1      78.861  50.111  31.878  1.00  0.00     0.162 C 
ATOM     15  O   UNL     1      79.251  49.475  30.662  1.00  0.00    -0.381 OA
ATOM     16  C   UNL     1      81.160  48.384  31.685  1.00  0.00     0.056 C 
ATOM     17  C   UNL     1      79.880  48.214  30.882  1.00  0.00     0.162 C 
ENDBRANCH   1  12
BRANCH   9  18
ATOM     18  C   UNL     1      80.428  50.013  38.367  1.00  0.00     0.131 C 
BRANCH  18  19
ATOM     19  C   UNL     1      81.065  49.956  39.730  1.00  0.00     0.048 A 
ATOM     20  C   UNL     1      80.947  51.018  40.621  1.00  0.00     0.024 A 
ATOM     21  N   UNL     1      81.714  48.802  40.045  1.00  0.00    -0.261 NA
ATOM     22  C   UNL     1      81.533  50.903  41.878  1.00  0.00     0.003 A 
ATOM     23  C   UNL     1      82.275  48.725  41.272  1.00  0.00     0.111 A 
ATOM     24  C   UNL     1      82.212  49.737  42.213  1.00  0.00     0.020 A 
ENDBRANCH  18  19
ENDBRANCH   9  18
TORSDOF 3
ENDMDL
MODEL 4
REMARK VINA RESULT:    -7.941      2.899      4.929
REMARK INTER + INTRA:         -10.102
REMARK INTER:                  -9.245
REMARK INTRA:                  -0.856
REMARK UNBOUND:                -0.768
REMARK SMILES O=c1[nH]c(Cc2ccccn2)nc2c1cnn2C1CCOCC1
REMARK SMILES IDX 17 1 13 2 14 3 15 4 16 5 2 6 1 7 3 8 4 9 12 10 18 12 19 13
REMARK SMILES IDX 20 14 21 15 23 16 22 17 5 18 6 19 7 20 11 21 8 22 10 23 9 24
REMARK H PARENT 3 11
ROOT
ATOM      1  N   UNL     1      76.492  52.824  41.044  1.00  0.00    -0.244 N 
ATOM      2  C   UNL     1      77.502  51.922  40.831  1.00  0.00     0.165 A 
ATOM      3  C   UNL     1      77.981  51.598  42.077  1.00  0.00     0.104 A 
ATOM      4  C   UNL     1      77.218  52.341  42.981  1.00  0.00     0.151 A 
ATOM      5  N   UNL     1      76.302  53.095  42.362  1.00  0.00    -0.178 NA
ATOM      6  C   UNL     1      79.063  50.666  42.186  1.00  0.00     0.262 A 
ATOM      7  O   UNL     1      79.593  50.343  43.242  1.00  0.00    -0.269 OA
ATOM      8  N   UNL     1      79.454  50.177  40.956  1.00  0.00    -0.310 N 
ATOM      9  C   UNL     1      78.914  50.595  39.744  1.00  0.00     0.117 A 
ATOM     10  N   UNL     1      77.937  51.452  39.635  1.00  0.00    -0.215 NA
ATOM     11  H   UNL     1      80.272  49.574  40.946  1.00  0.00     0.171 HD
ENDROOT
BRANCH   1  12
ATOM     12  C   UNL     1      75.652  53.491  40.060  1.00  0.00     0.114 C 
ATOM     13  C   UNL     1      74.382  52.701  39.734  1.00  0.00     0.056 C 
ATOM     14  C   UNL     1      73.552  53.460  38.710  1.00  0.00     0.162 C 
ATOM     15  O   UNL     1      73.257  54.776  39.175  1.00  0.00    -0.381 OA
ATOM     16  C   UNL     1      75.318  54.936  40.445  1.00  0.00     0.056 C 
ATOM     17  C   UNL     1      74.432  55.560  39.378  1.00  0.00     0.162 C 
ENDBRANCH   1  12
BRANCH   9  18
ATOM     18  C   UNL     1      79.510  49.949  38.514  1.00  0.00     0.131 C 
BRANCH  18  19
ATOM     19  C   UNL     1      80.443  50.884  37.792  1.00  0.00     0.048 A 
ATOM     20  C   UNL     1      80.443  50.964  36.403  1.00  0.00     0.024 A 
ATOM     21  N   UNL     1      81.241  51.663  38.572  1.00  0.00    -0.261 NA
ATOM     22  C   UNL     1      81.307  51.864  35.786  1.00  0.00     0.003 A 
ATOM     23  C   UNL     1      82.070  52.524  37.941  1.00  0.00     0.111 A 
ATOM     24  C   UNL     1      82.139  52.659  36.566  1.00  0.00     0.020 A 
ENDBRANCH  18  19
ENDBRANCH   9  18
TORSDOF 3
ENDMDL
MODEL 5
REMARK VINA RESULT:    -7.906      2.497      4.343
REMARK INTER + INTRA:         -10.061
REMARK INTER:                  -9.345
REMARK INTRA:                  -0.715
REMARK UNBOUND:                -0.768
REMARK SMILES O=c1[nH]c(Cc2ccccn2)nc2c1cnn2C1CCOCC1
REMARK SMILES IDX 17 1 13 2 14 3 15 4 16 5 2 6 1 7 3 8 4 9 12 10 18 12 19 13
REMARK SMILES IDX 20 14 21 15 23 16 22 17 5 18 6 19 7 20 11 21 8 22 10 23 9 24
REMARK H PARENT 3 11
ROOT
ATOM      1  N   UNL     1      80.997  50.719  42.140  1.00  0.00    -0.244 N 
ATOM      2  C   UNL     1      81.571  50.538  40.909  1.00  0.00     0.165 A 
ATOM      3  C   UNL     1      82.580  49.624  41.099  1.00  0.00     0.104 A 
ATOM      4  C   UNL     1      82.553  49.308  42.459  1.00  0.00     0.151 A 
ATOM      5  N   UNL     1      81.587  49.970  43.109  1.00  0.00    -0.178 NA
ATOM      6  C   UNL     1      83.381  49.229  39.980  1.00  0.00     0.262 A 
ATOM      7  O   UNL     1      84.331  48.458  40.048  1.00  0.00    -0.269 OA
ATOM      8  N   UNL     1      82.968  49.829  38.807  1.00  0.00    -0.310 N 
ATOM      9  C   UNL     1      81.943  50.766  38.730  1.00  0.00     0.117 A 
ATOM     10  N   UNL     1      81.216  51.141  39.747  1.00  0.00    -0.215 NA
ATOM     11  H   UNL     1      83.541  49.660  37.985  1.00  0.00     0.171 HD
ENDROOT
BRANCH   1  12
ATOM     12  C   UNL     1      79.886  51.587  42.501  1.00  0.00     0.114 C 
ATOM     13  C   UNL     1      78.561  51.144  41.875  1.00  0.00     0.056 C 
ATOM     14  C   UNL     1      77.448  52.088  42.302  1.00  0.00     0.162 C 
ATOM     15  O   UNL     1      77.367  52.162  43.724  1.00  0.00    -0.381 OA
ATOM     16  C   UNL     1      79.744  51.773  44.016  1.00  0.00     0.056 C 
ATOM     17  C   UNL     1      78.559  52.679  44.313  1.00  0.00     0.162 C 
ENDBRANCH   1  12
BRANCH   9  18
ATOM     18  C   UNL     1      81.674  51.317  37.349  1.00  0.00     0.131 C 
BRANCH  18  19
ATOM     19  C   UNL     1      82.484  50.606  36.298  1.00  0.00     0.048 A 
ATOM     20  C   UNL     1      81.882  49.727  35.403  1.00  0.00     0.024 A 
ATOM     21  N   UNL     1      83.811  50.906  36.253  1.00  0.00    -0.261 NA
ATOM     22  C   UNL     1      82.673  49.116  34.434  1.00  0.00     0.003 A 
ATOM     23  C   UNL     1      84.550  50.292  35.302  1.00  0.00     0.111 A 
ATOM     24  C   UNL     1      84.032  49.399  34.381  1.00  0.00     0.020 A 
ENDBRANCH  18  19
ENDBRANCH   9  18
TORSDOF 3
ENDMDL
MODEL 6
REMARK VINA RESULT:    -7.890      2.699      6.937
REMARK INTER + INTRA:         -10.042
REMARK INTER:                  -9.431
REMARK INTRA:                  -0.611
REMARK UNBOUND:                -0.768
REMARK SMILES O=c1[nH]c(Cc2ccccn2)nc2c1cnn2C1CCOCC1
REMARK SMILES IDX 17 1 13 2 14 3 15 4 16 5 2 6 1 7 3 8 4 9 12 10 18 12 19 13
REMARK SMILES IDX 20 14 21 15 23 16 22 17 5 18 6 19 7 20 11 21 8 22 10 23 9 24
REMARK H PARENT 3 11
ROOT
ATOM      1  N   UNL     1      80.302  50.654  41.896  1.00  0.00    -0.244 N 
ATOM      2  C   UNL     1      79.043  51.172  41.738  1.00  0.00     0.165 A 
ATOM      3  C   UNL     1      78.697  51.689  42.963  1.00  0.00     0.104 A 
ATOM      4  C   UNL     1      79.787  51.444  43.801  1.00  0.00     0.151 A 
ATOM      5  N   UNL     1      80.778  50.812  43.160  1.00  0.00    -0.178 NA
ATOM      6  C   UNL     1      77.412  52.304  43.121  1.00  0.00     0.262 A 
ATOM      7  O   UNL     1      76.988  52.756  44.178  1.00  0.00    -0.269 OA
ATOM      8  N   UNL     1      76.696  52.320  41.942  1.00  0.00    -0.310 N 
ATOM      9  C   UNL     1      77.133  51.741  40.756  1.00  0.00     0.117 A 
ATOM     10  N   UNL     1      78.296  51.169  40.606  1.00  0.00    -0.215 NA
ATOM     11  H   UNL     1      75.742  52.667  41.996  1.00  0.00     0.171 HD
ENDROOT
BRANCH   1  12
ATOM     12  C   UNL     1      81.135  49.983  40.909  1.00  0.00     0.114 C 
ATOM     13  C   UNL     1      81.410  50.852  39.679  1.00  0.00     0.056 C 
ATOM     14  C   UNL     1      82.290  50.093  38.699  1.00  0.00     0.162 C 
ATOM     15  O   UNL     1      83.496  49.666  39.330  1.00  0.00    -0.381 OA
ATOM     16  C   UNL     1      82.439  49.440  41.502  1.00  0.00     0.056 C 
ATOM     17  C   UNL     1      83.257  48.766  40.412  1.00  0.00     0.162 C 
ENDBRANCH   1  12
BRANCH   9  18
ATOM     18  C   UNL     1      76.176  51.850  39.591  1.00  0.00     0.131 C 
BRANCH  18  19
ATOM     19  C   UNL     1      75.520  53.204  39.535  1.00  0.00     0.048 A 
ATOM     20  C   UNL     1      74.192  53.341  39.142  1.00  0.00     0.024 A 
ATOM     21  N   UNL     1      76.282  54.261  39.928  1.00  0.00    -0.261 NA
ATOM     22  C   UNL     1      73.626  54.612  39.133  1.00  0.00     0.003 A 
ATOM     23  C   UNL     1      75.702  55.482  39.904  1.00  0.00     0.111 A 
ATOM     24  C   UNL     1      74.392  55.706  39.518  1.00  0.00     0.020 A 
ENDBRANCH  18  19
ENDBRANCH   9  18
TORSDOF 3
ENDMDL
MODEL 7
REMARK VINA RESULT:    -7.854      2.915      4.192
REMARK INTER + INTRA:         -10.000
REMARK INTER:                  -9.193
REMARK INTRA:                  -0.807
REMARK UNBOUND:                -0.768
REMARK SMILES O=c1[nH]c(Cc2ccccn2)nc2c1cnn2C1CCOCC1
REMARK SMILES IDX 17 1 13 2 14 3 15 4 16 5 2 6 1 7 3 8 4 9 12 10 18 12 19 13
REMARK SMILES IDX 20 14 21 15 23 16 22 17 5 18 6 19 7 20 11 21 8 22 10 23 9 24
REMARK H PARENT 3 11
ROOT
ATOM      1  N   UNL     1      78.427  51.705  41.544  1.00  0.00    -0.244 N 
ATOM      2  C   UNL     1      79.648  51.380  41.012  1.00  0.00     0.165 A 
ATOM      3  C   UNL     1      80.325  50.721  42.010  1.00  0.00     0.104 A 
ATOM      4  C   UNL     1      79.456  50.691  43.103  1.00  0.00     0.151 A 
ATOM      5  N   UNL     1      78.289  51.289  42.831  1.00  0.00    -0.178 NA
ATOM      6  C   UNL     1      81.656  50.253  41.757  1.00  0.00     0.262 A 
ATOM      7  O   UNL     1      82.361  49.695  42.588  1.00  0.00    -0.269 OA
ATOM      8  N   UNL     1      82.061  50.515  40.464  1.00  0.00    -0.310 N 
ATOM      9  C   UNL     1      81.301  51.218  39.536  1.00  0.00     0.117 A 
ATOM     10  N   UNL     1      80.093  51.657  39.761  1.00  0.00    -0.215 NA
ATOM     11  H   UNL     1      83.025  50.287  40.236  1.00  0.00     0.171 HD
ENDROOT
BRANCH   1  12
ATOM     12  C   UNL     1      77.326  52.416  40.912  1.00  0.00     0.114 C 
ATOM     13  C   UNL     1      76.619  51.580  39.842  1.00  0.00     0.056 C 
ATOM     14  C   UNL     1      75.478  52.380  39.233  1.00  0.00     0.162 C 
ATOM     15  O   UNL     1      74.576  52.822  40.247  1.00  0.00    -0.381 OA
ATOM     16  C   UNL     1      76.321  52.977  41.924  1.00  0.00     0.056 C 
ATOM     17  C   UNL     1      75.198  53.692  41.190  1.00  0.00     0.162 C 
ENDBRANCH   1  12
BRANCH   9  18
ATOM     18  C   UNL     1      81.950  51.417  38.186  1.00  0.00     0.131 C 
BRANCH  18  19
ATOM     19  C   UNL     1      82.393  50.110  37.583  1.00  0.00     0.048 A 
ATOM     20  C   UNL     1      81.557  49.393  36.734  1.00  0.00     0.024 A 
ATOM     21  N   UNL     1      83.657  49.705  37.884  1.00  0.00    -0.261 NA
ATOM     22  C   UNL     1      82.025  48.203  36.183  1.00  0.00     0.003 A 
ATOM     23  C   UNL     1      84.079  48.544  37.335  1.00  0.00     0.111 A 
ATOM     24  C   UNL     1      83.309  47.766  36.488  1.00  0.00     0.020 A 
ENDBRANCH  18  19
ENDBRANCH   9  18
TORSDOF 3
ENDMDL
MODEL 8
REMARK VINA RESULT:    -7.843      2.254      7.506
REMARK INTER + INTRA:          -9.986
REMARK INTER:                  -9.182
REMARK INTRA:                  -0.805
REMARK UNBOUND:                -0.768
REMARK SMILES O=c1[nH]c(Cc2ccccn2)nc2c1cnn2C1CCOCC1
REMARK SMILES IDX 17 1 13 2 14 3 15 4 16 5 2 6 1 7 3 8 4 9 12 10 18 12 19 13
REMARK SMILES IDX 20 14 21 15 23 16 22 17 5 18 6 19 7 20 11 21 8 22 10 23 9 24
REMARK H PARENT 3 11
ROOT
ATOM      1  N   UNL     1      81.305  49.870  38.710  1.00  0.00    -0.244 N 
ATOM      2  C   UNL     1      80.672  50.159  39.891  1.00  0.00     0.165 A 
ATOM      3  C   UNL     1      79.395  50.533  39.548  1.00  0.00     0.104 A 
ATOM      4  C   UNL     1      79.336  50.447  38.155  1.00  0.00     0.151 A 
ATOM      5  N   UNL     1      80.499  50.041  37.629  1.00  0.00    -0.178 NA
ATOM      6  C   UNL     1      78.478  50.906  40.582  1.00  0.00     0.262 A 
ATOM      7  O   UNL     1      77.334  51.296  40.384  1.00  0.00    -0.269 OA
ATOM      8  N   UNL     1      79.036  50.789  41.839  1.00  0.00    -0.310 N 
ATOM      9  C   UNL     1      80.357  50.424  42.075  1.00  0.00     0.117 A 
ATOM     10  N   UNL     1      81.203  50.093  41.138  1.00  0.00    -0.215 NA
ATOM     11  H   UNL     1      78.471  51.116  42.619  1.00  0.00     0.171 HD
ENDROOT
BRANCH   1  12
ATOM     12  C   UNL     1      82.677  49.431  38.503  1.00  0.00     0.114 C 
ATOM     13  C   UNL     1      82.854  47.925  38.717  1.00  0.00     0.056 C 
ATOM     14  C   UNL     1      84.304  47.537  38.475  1.00  0.00     0.162 C 
ATOM     15  O   UNL     1      84.724  47.944  37.174  1.00  0.00    -0.381 OA
ATOM     16  C   UNL     1      83.241  49.863  37.145  1.00  0.00     0.056 C 
ATOM     17  C   UNL     1      84.668  49.359  36.998  1.00  0.00     0.162 C 
ENDBRANCH   1  12
BRANCH   9  18
ATOM     18  C   UNL     1      80.768  50.386  43.528  1.00  0.00     0.131 C 
BRANCH  18  19
ATOM     19  C   UNL     1      79.804  51.147  44.399  1.00  0.00     0.048 A 
ATOM     20  C   UNL     1      79.025  50.491  45.348  1.00  0.00     0.024 A 
ATOM     21  N   UNL     1      79.777  52.497  44.232  1.00  0.00    -0.261 NA
ATOM     22  C   UNL     1      78.169  51.245  46.145  1.00  0.00     0.003 A 
ATOM     23  C   UNL     1      78.932  53.199  45.021  1.00  0.00     0.111 A 
ATOM     24  C   UNL     1      78.117  52.624  45.980  1.00  0.00     0.020 A 
ENDBRANCH  18  19
ENDBRANCH   9  18
TORSDOF 3
ENDMDL
MODEL 9
REMARK VINA RESULT:    -7.780      2.869      7.607
REMARK INTER + INTRA:          -9.913
REMARK INTER:                  -9.075
REMARK INTRA:                  -0.838
REMARK UNBOUND:                -0.768
REMARK SMILES O=c1[nH]c(Cc2ccccn2)nc2c1cnn2C1CCOCC1
REMARK SMILES IDX 17 1 13 2 14 3 15 4 16 5 2 6 1 7 3 8 4 9 12 10 18 12 19 13
REMARK SMILES IDX 20 14 21 15 23 16 22 17 5 18 6 19 7 20 11 21 8 22 10 23 9 24
REMARK H PARENT 3 11
ROOT
ATOM      1  N   UNL     1      81.036  51.141  39.664  1.00  0.00    -0.244 N 
ATOM      2  C   UNL     1      79.722  51.253  40.040  1.00  0.00     0.165 A 
ATOM      3  C   UNL     1      79.736  51.360  41.410  1.00  0.00     0.104 A 
ATOM      4  C   UNL     1      81.081  51.303  41.782  1.00  0.00     0.151 A 
ATOM      5  N   UNL     1      81.888  51.170  40.722  1.00  0.00    -0.178 NA
ATOM      6  C   UNL     1      78.493  51.486  42.111  1.00  0.00     0.262 A 
ATOM      7  O   UNL     1      78.389  51.543  43.330  1.00  0.00    -0.269 OA
ATOM      8  N   UNL     1      77.413  51.522  41.251  1.00  0.00    -0.310 N 
ATOM      9  C   UNL     1      77.510  51.379  39.871  1.00  0.00     0.117 A 
ATOM     10  N   UNL     1      78.638  51.252  39.226  1.00  0.00    -0.215 NA
ATOM     11  H   UNL     1      76.492  51.527  41.680  1.00  0.00     0.171 HD
ENDROOT
BRANCH   1  12
ATOM     12  C   UNL     1      81.583  50.996  38.323  1.00  0.00     0.114 C 
ATOM     13  C   UNL     1      82.066  52.325  37.734  1.00  0.00     0.056 C 
ATOM     14  C   UNL     1      82.631  52.096  36.341  1.00  0.00     0.162 C 
ATOM     15  O   UNL     1      83.669  51.118  36.373  1.00  0.00    -0.381 OA
ATOM     16  C   UNL     1      82.678  49.928  38.240  1.00  0.00     0.056 C 
ATOM     17  C   UNL     1      83.206  49.843  36.817  1.00  0.00     0.162 C 
ENDBRANCH   1  12
BRANCH   9  18
ATOM     18  C   UNL     1      76.198  51.421  39.123  1.00  0.00     0.131 C 
BRANCH  18  19
ATOM     19  C   UNL     1      75.532  52.766  39.244  1.00  0.00     0.048 A 
ATOM     20  C   UNL     1      74.218  52.955  38.827  1.00  0.00     0.024 A 
ATOM     21  N   UNL     1      76.270  53.756  39.816  1.00  0.00    -0.261 NA
ATOM     22  C   UNL     1      73.641  54.211  38.986  1.00  0.00     0.003 A 
ATOM     23  C   UNL     1      75.681  54.965  39.952  1.00  0.00     0.111 A 
ATOM     24  C   UNL     1      74.383  55.238  39.556  1.00  0.00     0.020 A 
ENDBRANCH  18  19
ENDBRANCH   9  18
TORSDOF 3
ENDMDL
MODEL 10
REMARK VINA RESULT:    -7.735      2.551      5.982
REMARK INTER + INTRA:          -9.860
REMARK INTER:                  -9.307
REMARK INTRA:                  -0.553
REMARK UNBOUND:                -0.768
REMARK SMILES O=c1[nH]c(Cc2ccccn2)nc2c1cnn2C1CCOCC1
REMARK SMILES IDX 17 1 13 2 14 3 15 4 16 5 2 6 1 7 3 8 4 9 12 10 18 12 19 13
REMARK SMILES IDX 20 14 21 15 23 16 22 17 5 18 6 19 7 20 11 21 8 22 10 23 9 24
REMARK H PARENT 3 11
ROOT
ATOM      1  N   UNL     1      80.157  50.706  42.005  1.00  0.00    -0.244 N 
ATOM      2  C   UNL     1      78.932  51.319  41.958  1.00  0.00     0.165 A 
ATOM      3  C   UNL     1      78.648  51.684  43.252  1.00  0.00     0.104 A 
ATOM      4  C   UNL     1      79.738  51.259  44.014  1.00  0.00     0.151 A 
ATOM      5  N   UNL     1      80.671  50.659  43.263  1.00  0.00    -0.178 NA
ATOM      6  C   UNL     1      77.411  52.351  43.532  1.00  0.00     0.262 A 
ATOM      7  O   UNL     1      77.041  52.678  44.652  1.00  0.00    -0.269 OA
ATOM      8  N   UNL     1      76.671  52.573  42.388  1.00  0.00    -0.310 N 
ATOM      9  C   UNL     1      77.043  52.136  41.121  1.00  0.00     0.117 A 
ATOM     10  N   UNL     1      78.162  51.518  40.859  1.00  0.00    -0.215 NA
ATOM     11  H   UNL     1      75.743  52.968  42.518  1.00  0.00     0.171 HD
ENDROOT
BRANCH   1  12
ATOM     12  C   UNL     1      80.922  50.127  40.911  1.00  0.00     0.114 C 
ATOM     13  C   UNL     1      81.371  51.170  39.885  1.00  0.00     0.056 C 
ATOM     14  C   UNL     1      82.168  50.497  38.780  1.00  0.00     0.162 C 
ATOM     15  O   UNL     1      83.272  49.774  39.324  1.00  0.00    -0.381 OA
ATOM     16  C   UNL     1      82.107  49.285  41.394  1.00  0.00     0.056 C 
ATOM     17  C   UNL     1      82.861  48.725  40.198  1.00  0.00     0.162 C 
ENDBRANCH   1  12
BRANCH   9  18
ATOM     18  C   UNL     1      76.069  52.463  40.013  1.00  0.00     0.131 C 
BRANCH  18  19
ATOM     19  C   UNL     1      76.212  51.518  38.850  1.00  0.00     0.048 A 
ATOM     20  C   UNL     1      75.736  50.213  38.925  1.00  0.00     0.024 A 
ATOM     21  N   UNL     1      76.786  52.027  37.726  1.00  0.00    -0.261 NA
ATOM     22  C   UNL     1      75.870  49.388  37.812  1.00  0.00     0.003 A 
ATOM     23  C   UNL     1      76.904  51.198  36.664  1.00  0.00     0.111 A 
ATOM     24  C   UNL     1      76.466  49.885  36.659  1.00  0.00     0.020 A 
ENDBRANCH  18  19
ENDBRANCH   9  18
TORSDOF 3
ENDMDL
MODEL 11
REMARK VINA RESULT:    -7.657      3.890      9.042
REMARK INTER + INTRA:          -9.768
REMARK INTER:                  -9.151
REMARK INTRA:                  -0.617
REMARK UNBOUND:                -0.768
REMARK SMILES O=c1[nH]c(Cc2ccccn2)nc2c1cnn2C1CCOCC1
REMARK SMILES IDX 17 1 13 2 14 3 15 4 16 5 2 6 1 7 3 8 4 9 12 10 18 12 19 13
REMARK SMILES IDX 20 14 21 15 23 16 22 17 5 18 6 19 7 20 11 21 8 22 10 23 9 24
REMARK H PARENT 3 11
ROOT
ATOM      1  N   UNL     1      81.819  49.078  35.164  1.00  0.00    -0.244 N 
ATOM      2  C   UNL     1      82.017  49.473  36.462  1.00  0.00     0.165 A 
ATOM      3  C   UNL     1      82.674  48.432  37.072  1.00  0.00     0.104 A 
ATOM      4  C   UNL     1      82.832  47.454  36.087  1.00  0.00     0.151 A 
ATOM      5  N   UNL     1      82.314  47.837  34.913  1.00  0.00    -0.178 NA
ATOM      6  C   UNL     1      83.020  48.543  38.458  1.00  0.00     0.262 A 
ATOM      7  O   UNL     1      83.564  47.659  39.107  1.00  0.00    -0.269 OA
ATOM      8  N   UNL     1      82.657  49.765  38.987  1.00  0.00    -0.310 N 
ATOM      9  C   UNL     1      81.968  50.746  38.282  1.00  0.00     0.117 A 
ATOM     10  N   UNL     1      81.638  50.648  37.023  1.00  0.00    -0.215 NA
ATOM     11  H   UNL     1      82.795  49.886  39.986  1.00  0.00     0.171 HD
ENDROOT
BRANCH   1  12
ATOM     12  C   UNL     1      81.165  49.806  34.087  1.00  0.00     0.114 C 
ATOM     13  C   UNL     1      81.544  49.279  32.701  1.00  0.00     0.056 C 
ATOM     14  C   UNL     1      80.819  50.077  31.629  1.00  0.00     0.162 C 
ATOM     15  O   UNL     1      79.409  50.044  31.844  1.00  0.00    -0.381 OA
ATOM     16  C   UNL     1      79.643  49.872  34.253  1.00  0.00     0.056 C 
ATOM     17  C   UNL     1      79.032  50.634  33.088  1.00  0.00     0.162 C 
ENDBRANCH   1  12
BRANCH   9  18
ATOM     18  C   UNL     1      81.645  51.998  39.065  1.00  0.00     0.131 C 
BRANCH  18  19
ATOM     19  C   UNL     1      80.638  51.731  40.151  1.00  0.00     0.048 A 
ATOM     20  C   UNL     1      81.024  51.663  41.486  1.00  0.00     0.024 A 
ATOM     21  N   UNL     1      79.342  51.606  39.755  1.00  0.00    -0.261 NA
ATOM     22  C   UNL     1      80.049  51.440  42.453  1.00  0.00     0.003 A 
ATOM     23  C   UNL     1      78.420  51.387  40.719  1.00  0.00     0.111 A 
ATOM     24  C   UNL     1      78.721  51.297  42.067  1.00  0.00     0.020 A 
ENDBRANCH  18  19
ENDBRANCH   9  18
TORSDOF 3
ENDMDL
MODEL 12
REMARK VINA RESULT:    -7.627      2.102      7.200
REMARK INTER + INTRA:          -9.733
REMARK INTER:                  -9.411
REMARK INTRA:                  -0.322
REMARK UNBOUND:                -0.768
REMARK SMILES O=c1[nH]c(Cc2ccccn2)nc2c1cnn2C1CCOCC1
REMARK SMILES IDX 17 1 13 2 14 3 15 4 16 5 2 6 1 7 3 8 4 9 12 10 18 12 19 13
REMARK SMILES IDX 20 14 21 15 23 16 22 17 5 18 6 19 7 20 11 21 8 22 10 23 9 24
REMARK H PARENT 3 11
ROOT
ATOM      1  N   UNL     1      78.698  50.876  39.379  1.00  0.00    -0.244 N 
ATOM      2  C   UNL     1      78.496  51.227  40.689  1.00  0.00     0.165 A 
ATOM      3  C   UNL     1      77.291  51.886  40.716  1.00  0.00     0.104 A 
ATOM      4  C   UNL     1      76.833  51.894  39.396  1.00  0.00     0.151 A 
ATOM      5  N   UNL     1      77.685  51.277  38.567  1.00  0.00    -0.178 NA
ATOM      6  C   UNL     1      76.801  52.390  41.964  1.00  0.00     0.262 A 
ATOM      7  O   UNL     1      75.764  53.028  42.092  1.00  0.00    -0.269 OA
ATOM      8  N   UNL     1      77.643  52.083  43.014  1.00  0.00    -0.310 N 
ATOM      9  C   UNL     1      78.861  51.429  42.871  1.00  0.00     0.117 A 
ATOM     10  N   UNL     1      79.321  50.977  41.736  1.00  0.00    -0.215 NA
ATOM     11  H   UNL     1      77.402  52.480  43.919  1.00  0.00     0.171 HD
ENDROOT
BRANCH   1  12
ATOM     12  C   UNL     1      79.826  50.163  38.797  1.00  0.00     0.114 C 
ATOM     13  C   UNL     1      79.811  50.181  37.267  1.00  0.00     0.056 C 
ATOM     14  C   UNL     1      81.018  49.428  36.731  1.00  0.00     0.162 C 
ATOM     15  O   UNL     1      82.227  49.972  37.259  1.00  0.00    -0.381 OA
ATOM     16  C   UNL     1      81.177  50.642  39.340  1.00  0.00     0.056 C 
ATOM     17  C   UNL     1      82.302  49.861  38.679  1.00  0.00     0.162 C 
ENDBRANCH   1  12
BRANCH   9  18
ATOM     18  C   UNL     1      79.638  51.220  44.151  1.00  0.00     0.131 C 
BRANCH  18  19
ATOM     19  C   UNL     1      79.265  52.234  45.199  1.00  0.00     0.048 A 
ATOM     20  C   UNL     1      79.709  53.550  45.114  1.00  0.00     0.024 A 
ATOM     21  N   UNL     1      78.444  51.800  46.194  1.00  0.00    -0.261 NA
ATOM     22  C   UNL     1      79.314  54.454  46.095  1.00  0.00     0.003 A 
ATOM     23  C   UNL     1      78.082  52.702  47.133  1.00  0.00     0.111 A 
ATOM     24  C   UNL     1      78.486  54.026  47.127  1.00  0.00     0.020 A 
ENDBRANCH  18  19
ENDBRANCH   9  18
TORSDOF 3
ENDMDL
MODEL 13
REMARK VINA RESULT:    -7.541      3.067      7.160
REMARK INTER + INTRA:          -9.632
REMARK INTER:                  -8.875
REMARK INTRA:                  -0.757
REMARK UNBOUND:                -0.768
REMARK SMILES O=c1[nH]c(Cc2ccccn2)nc2c1cnn2C1CCOCC1
REMARK SMILES IDX 17 1 13 2 14 3 15 4 16 5 2 6 1 7 3 8 4 9 12 10 18 12 19 13
REMARK SMILES IDX 20 14 21 15 23 16 22 17 5 18 6 19 7 20 11 21 8 22 10 23 9 24
REMARK H PARENT 3 11
ROOT
ATOM      1  N   UNL     1      79.767  50.796  40.998  1.00  0.00    -0.244 N 
ATOM      2  C   UNL     1      78.578  51.478  40.993  1.00  0.00     0.165 A 
ATOM      3  C   UNL     1      78.261  51.683  42.314  1.00  0.00     0.104 A 
ATOM      4  C   UNL     1      79.295  51.099  43.048  1.00  0.00     0.151 A 
ATOM      5  N   UNL     1      80.225  50.552  42.254  1.00  0.00    -0.178 NA
ATOM      6  C   UNL     1      77.050  52.376  42.639  1.00  0.00     0.262 A 
ATOM      7  O   UNL     1      76.652  52.573  43.780  1.00  0.00    -0.269 OA
ATOM      8  N   UNL     1      76.370  52.791  41.512  1.00  0.00    -0.310 N 
ATOM      9  C   UNL     1      76.770  52.506  40.211  1.00  0.00     0.117 A 
ATOM     10  N   UNL     1      77.865  51.865  39.906  1.00  0.00    -0.215 NA
ATOM     11  H   UNL     1      75.459  53.217  41.662  1.00  0.00     0.171 HD
ENDROOT
BRANCH   1  12
ATOM     12  C   UNL     1      80.544  50.324  39.862  1.00  0.00     0.114 C 
ATOM     13  C   UNL     1      81.426  51.417  39.254  1.00  0.00     0.056 C 
ATOM     14  C   UNL     1      82.213  50.852  38.082  1.00  0.00     0.162 C 
ATOM     15  O   UNL     1      82.975  49.716  38.487  1.00  0.00    -0.381 OA
ATOM     16  C   UNL     1      81.364  49.070  40.182  1.00  0.00     0.056 C 
ATOM     17  C   UNL     1      82.155  48.646  38.954  1.00  0.00     0.162 C 
ENDBRANCH   1  12
BRANCH   9  18
ATOM     18  C   UNL     1      75.861  53.032  39.125  1.00  0.00     0.131 C 
BRANCH  18  19
ATOM     19  C   UNL     1      74.552  52.290  39.086  1.00  0.00     0.048 A 
ATOM     20  C   UNL     1      74.477  50.995  38.584  1.00  0.00     0.024 A 
ATOM     21  N   UNL     1      73.474  52.940  39.604  1.00  0.00    -0.261 NA
ATOM     22  C   UNL     1      73.247  50.343  38.595  1.00  0.00     0.003 A 
ATOM     23  C   UNL     1      72.294  52.280  39.597  1.00  0.00     0.111 A 
ATOM     24  C   UNL     1      72.132  50.995  39.109  1.00  0.00     0.020 A 
ENDBRANCH  18  19
ENDBRANCH   9  18
TORSDOF 3
ENDMDL
MODEL 14
REMARK VINA RESULT:    -7.484      4.973      7.963
REMARK INTER + INTRA:          -9.564
REMARK INTER:                  -8.874
REMARK INTRA:                  -0.691
REMARK UNBOUND:                -0.768
REMARK SMILES O=c1[nH]c(Cc2ccccn2)nc2c1cnn2C1CCOCC1
REMARK SMILES IDX 17 1 13 2 14 3 15 4 16 5 2 6 1 7 3 8 4 9 12 10 18 12 19 13
REMARK SMILES IDX 20 14 21 15 23 16 22 17 5 18 6 19 7 20 11 21 8 22 10 23 9 24
REMARK H PARENT 3 11
ROOT
ATOM      1  N   UNL     1      83.237  49.358  37.904  1.00  0.00    -0.244 N 
ATOM      2  C   UNL     1      82.843  49.555  36.606  1.00  0.00     0.165 A 
ATOM      3  C   UNL     1      83.948  49.284  35.836  1.00  0.00     0.104 A 
ATOM      4  C   UNL     1      84.960  48.936  36.733  1.00  0.00     0.151 A 
ATOM      5  N   UNL     1      84.538  48.976  38.004  1.00  0.00    -0.178 NA
ATOM      6  C   UNL     1      83.852  49.410  34.412  1.00  0.00     0.262 A 
ATOM      7  O   UNL     1      84.785  49.235  33.639  1.00  0.00    -0.269 OA
ATOM      8  N   UNL     1      82.581  49.765  34.007  1.00  0.00    -0.310 N 
ATOM      9  C   UNL     1      81.534  50.042  34.878  1.00  0.00     0.117 A 
ATOM     10  N   UNL     1      81.616  49.942  36.177  1.00  0.00    -0.215 NA
ATOM     11  H   UNL     1      82.457  49.953  33.016  1.00  0.00     0.171 HD
ENDROOT
BRANCH   1  12
ATOM     12  C   UNL     1      82.454  49.513  39.121  1.00  0.00     0.114 C 
ATOM     13  C   UNL     1      83.176  48.980  40.361  1.00  0.00     0.056 C 
ATOM     14  C   UNL     1      82.306  49.182  41.591  1.00  0.00     0.162 C 
ATOM     15  O   UNL     1      81.946  50.555  41.733  1.00  0.00    -0.381 OA
ATOM     16  C   UNL     1      81.974  50.951  39.340  1.00  0.00     0.056 C 
ATOM     17  C   UNL     1      81.176  51.035  40.632  1.00  0.00     0.162 C 
ENDBRANCH   1  12
BRANCH   9  18
ATOM     18  C   UNL     1      80.233  50.440  34.220  1.00  0.00     0.131 C 
BRANCH  18  19
ATOM     19  C   UNL     1      79.991  49.665  32.953  1.00  0.00     0.048 A 
ATOM     20  C   UNL     1      79.082  48.612  32.920  1.00  0.00     0.024 A 
ATOM     21  N   UNL     1      80.673  50.080  31.851  1.00  0.00    -0.261 NA
ATOM     22  C   UNL     1      78.876  47.944  31.716  1.00  0.00     0.003 A 
ATOM     23  C   UNL     1      80.452  49.408  30.699  1.00  0.00     0.111 A 
ATOM     24  C   UNL     1      79.573  48.345  30.583  1.00  0.00     0.020 A 
ENDBRANCH  18  19
ENDBRANCH   9  18
TORSDOF 3
ENDMDL
MODEL 15
REMARK VINA RESULT:    -7.483      2.397      5.378
REMARK INTER + INTRA:          -9.564
REMARK INTER:                  -9.301
REMARK INTRA:                  -0.262
REMARK UNBOUND:                -0.768
REMARK SMILES O=c1[nH]c(Cc2ccccn2)nc2c1cnn2C1CCOCC1
REMARK SMILES IDX 17 1 13 2 14 3 15 4 16 5 2 6 1 7 3 8 4 9 12 10 18 12 19 13
REMARK SMILES IDX 20 14 21 15 23 16 22 17 5 18 6 19 7 20 11 21 8 22 10 23 9 24
REMARK H PARENT 3 11
ROOT
ATOM      1  N   UNL     1      79.483  51.410  42.634  1.00  0.00    -0.244 N 
ATOM      2  C   UNL     1      78.941  51.303  41.379  1.00  0.00     0.165 A 
ATOM      3  C   UNL     1      79.990  51.005  40.544  1.00  0.00     0.104 A 
ATOM      4  C   UNL     1      81.122  50.952  41.361  1.00  0.00     0.151 A 
ATOM      5  N   UNL     1      80.826  51.197  42.644  1.00  0.00    -0.178 NA
ATOM      6  C   UNL     1      79.739  50.835  39.144  1.00  0.00     0.262 A 
ATOM      7  O   UNL     1      80.606  50.612  38.309  1.00  0.00    -0.269 OA
ATOM      8  N   UNL     1      78.399  50.965  38.837  1.00  0.00    -0.310 N 
ATOM      9  C   UNL     1      77.416  51.296  39.763  1.00  0.00     0.117 A 
ATOM     10  N   UNL     1      77.637  51.464  41.038  1.00  0.00    -0.215 NA
ATOM     11  H   UNL     1      78.155  50.939  37.851  1.00  0.00     0.171 HD
ENDROOT
BRANCH   1  12
ATOM     12  C   UNL     1      78.810  51.718  43.887  1.00  0.00     0.114 C 
ATOM     13  C   UNL     1      79.000  50.626  44.944  1.00  0.00     0.056 C 
ATOM     14  C   UNL     1      78.280  51.018  46.224  1.00  0.00     0.162 C 
ATOM     15  O   UNL     1      78.730  52.291  46.686  1.00  0.00    -0.381 OA
ATOM     16  C   UNL     1      79.190  53.094  44.444  1.00  0.00     0.056 C 
ATOM     17  C   UNL     1      78.459  53.337  45.755  1.00  0.00     0.162 C 
ENDBRANCH   1  12
BRANCH   9  18
ATOM     18  C   UNL     1      76.016  51.413  39.206  1.00  0.00     0.131 C 
BRANCH  18  19
ATOM     19  C   UNL     1      75.479  52.813  39.342  1.00  0.00     0.048 A 
ATOM     20  C   UNL     1      74.180  53.123  38.953  1.00  0.00     0.024 A 
ATOM     21  N   UNL     1      76.316  53.729  39.901  1.00  0.00    -0.261 NA
ATOM     22  C   UNL     1      73.723  54.426  39.125  1.00  0.00     0.003 A 
ATOM     23  C   UNL     1      75.843  54.987  40.051  1.00  0.00     0.111 A 
ATOM     24  C   UNL     1      74.568  55.379  39.682  1.00  0.00     0.020 A 
ENDBRANCH  18  19
ENDBRANCH   9  18
TORSDOF 3
ENDMDL
MODEL 16
REMARK VINA RESULT:    -7.448      2.277      2.966
REMARK INTER + INTRA:          -9.523
REMARK INTER:                  -9.126
REMARK INTRA:                  -0.397
REMARK UNBOUND:                -0.768
REMARK SMILES O=c1[nH]c(Cc2ccccn2)nc2c1cnn2C1CCOCC1
REMARK SMILES IDX 17 1 13 2 14 3 15 4 16 5 2 6 1 7 3 8 4 9 12 10 18 12 19 13
REMARK SMILES IDX 20 14 21 15 23 16 22 17 5 18 6 19 7 20 11 21 8 22 10 23 9 24
REMARK H PARENT 3 11
ROOT
ATOM      1  N   UNL     1      77.009  52.292  42.234  1.00  0.00    -0.244 N 
ATOM      2  C   UNL     1      77.212  51.889  40.940  1.00  0.00     0.165 A 
ATOM      3  C   UNL     1      76.232  52.507  40.200  1.00  0.00     0.104 A 
ATOM      4  C   UNL     1      75.484  53.256  41.111  1.00  0.00     0.151 A 
ATOM      5  N   UNL     1      75.950  53.135  42.361  1.00  0.00    -0.178 NA
ATOM      6  C   UNL     1      76.175  52.273  38.788  1.00  0.00     0.262 A 
ATOM      7  O   UNL     1      75.319  52.737  38.045  1.00  0.00    -0.269 OA
ATOM      8  N   UNL     1      77.195  51.449  38.356  1.00  0.00    -0.310 N 
ATOM      9  C   UNL     1      78.125  50.852  39.200  1.00  0.00     0.117 A 
ATOM     10  N   UNL     1      78.177  51.050  40.489  1.00  0.00    -0.215 NA
ATOM     11  H   UNL     1      77.170  51.171  37.379  1.00  0.00     0.171 HD
ENDROOT
BRANCH   1  12
ATOM     12  C   UNL     1      77.764  51.928  43.424  1.00  0.00     0.114 C 
ATOM     13  C   UNL     1      79.255  51.727  43.140  1.00  0.00     0.056 C 
ATOM     14  C   UNL     1      79.980  51.359  44.425  1.00  0.00     0.162 C 
ATOM     15  O   UNL     1      79.757  52.346  45.430  1.00  0.00    -0.381 OA
ATOM     16  C   UNL     1      77.553  52.905  44.585  1.00  0.00     0.056 C 
ATOM     17  C   UNL     1      78.380  52.466  45.783  1.00  0.00     0.162 C 
ENDBRANCH   1  12
BRANCH   9  18
ATOM     18  C   UNL     1      79.139  49.963  38.519  1.00  0.00     0.131 C 
BRANCH  18  19
ATOM     19  C   UNL     1      80.127  50.762  37.712  1.00  0.00     0.048 A 
ATOM     20  C   UNL     1      81.402  51.030  38.201  1.00  0.00     0.024 A 
ATOM     21  N   UNL     1      79.716  51.161  36.478  1.00  0.00    -0.261 NA
ATOM     22  C   UNL     1      82.286  51.751  37.404  1.00  0.00     0.003 A 
ATOM     23  C   UNL     1      80.598  51.863  35.731  1.00  0.00     0.111 A 
ATOM     24  C   UNL     1      81.880  52.179  36.146  1.00  0.00     0.020 A 
ENDBRANCH  18  19
ENDBRANCH   9  18
TORSDOF 3
ENDMDL
MODEL 17
REMARK VINA RESULT:    -7.374      3.220      5.204
REMARK INTER + INTRA:          -9.436
REMARK INTER:                  -8.617
REMARK INTRA:                  -0.819
REMARK UNBOUND:                -0.768
REMARK SMILES O=c1[nH]c(Cc2ccccn2)nc2c1cnn2C1CCOCC1
REMARK SMILES IDX 17 1 13 2 14 3 15 4 16 5 2 6 1 7 3 8 4 9 12 10 18 12 19 13
REMARK SMILES IDX 20 14 21 15 23 16 22 17 5 18 6 19 7 20 11 21 8 22 10 23 9 24
REMARK H PARENT 3 11
ROOT
ATOM      1  N   UNL     1      81.294  50.439  41.021  1.00  0.00    -0.244 N 
ATOM      2  C   UNL     1      81.734  50.562  39.729  1.00  0.00     0.165 A 
ATOM      3  C   UNL     1      82.660  49.562  39.554  1.00  0.00     0.104 A 
ATOM      4  C   UNL     1      82.724  48.887  40.775  1.00  0.00     0.151 A 
ATOM      5  N   UNL     1      81.892  49.413  41.683  1.00  0.00    -0.178 NA
ATOM      6  C   UNL     1      83.314  49.434  38.287  1.00  0.00     0.262 A 
ATOM      7  O   UNL     1      84.185  48.608  38.039  1.00  0.00    -0.269 OA
ATOM      8  N   UNL     1      82.859  50.361  37.371  1.00  0.00    -0.310 N 
ATOM      9  C   UNL     1      81.930  51.353  37.662  1.00  0.00     0.117 A 
ATOM     10  N   UNL     1      81.338  51.485  38.817  1.00  0.00    -0.215 NA
ATOM     11  H   UNL     1      83.336  50.384  36.474  1.00  0.00     0.171 HD
ENDROOT
BRANCH   1  12
ATOM     12  C   UNL     1      80.312  51.251  41.724  1.00  0.00     0.114 C 
ATOM     13  C   UNL     1      78.878  50.978  41.261  1.00  0.00     0.056 C 
ATOM     14  C   UNL     1      77.909  51.853  42.042  1.00  0.00     0.162 C 
ATOM     15  O   UNL     1      78.065  51.648  43.445  1.00  0.00    -0.381 OA
ATOM     16  C   UNL     1      80.428  51.140  43.248  1.00  0.00     0.056 C 
ATOM     17  C   UNL     1      79.366  52.004  43.909  1.00  0.00     0.162 C 
ENDBRANCH   1  12
BRANCH   9  18
ATOM     18  C   UNL     1      81.594  52.281  36.517  1.00  0.00     0.131 C 
BRANCH  18  19
ATOM     19  C   UNL     1      80.763  51.592  35.468  1.00  0.00     0.048 A 
ATOM     20  C   UNL     1      79.473  52.026  35.177  1.00  0.00     0.024 A 
ATOM     21  N   UNL     1      81.359  50.565  34.805  1.00  0.00    -0.261 NA
ATOM     22  C   UNL     1      78.757  51.371  34.180  1.00  0.00     0.003 A 
ATOM     23  C   UNL     1      80.634  49.948  33.844  1.00  0.00     0.111 A 
ATOM     24  C   UNL     1      79.344  50.310  33.500  1.00  0.00     0.020 A 
ENDBRANCH  18  19
ENDBRANCH   9  18
TORSDOF 3
ENDMDL
MODEL 18
REMARK VINA RESULT:    -7.352      2.455      4.575
REMARK INTER + INTRA:          -9.409
REMARK INTER:                  -8.875
REMARK INTRA:                  -0.534
REMARK UNBOUND:                -0.768
REMARK SMILES O=c1[nH]c(Cc2ccccn2)nc2c1cnn2C1CCOCC1
REMARK SMILES IDX 17 1 13 2 14 3 15 4 16 5 2 6 1 7 3 8 4 9 12 10 18 12 19 13
REMARK SMILES IDX 20 14 21 15 23 16 22 17 5 18 6 19 7 20 11 21 8 22 10 23 9 24
REMARK H PARENT 3 11
ROOT
ATOM      1  N   UNL     1      80.015  51.075  43.344  1.00  0.00    -0.244 N 
ATOM      2  C   UNL     1      79.349  51.215  42.155  1.00  0.00     0.165 A 
ATOM      3  C   UNL     1      80.154  50.633  41.206  1.00  0.00     0.104 A 
ATOM      4  C   UNL     1      81.278  50.171  41.895  1.00  0.00     0.151 A 
ATOM      5  N   UNL     1      81.206  50.434  43.206  1.00  0.00    -0.178 NA
ATOM      6  C   UNL     1      79.727  50.626  39.839  1.00  0.00     0.262 A 
ATOM      7  O   UNL     1      80.386  50.174  38.911  1.00  0.00    -0.269 OA
ATOM      8  N   UNL     1      78.482  51.202  39.681  1.00  0.00    -0.310 N 
ATOM      9  C   UNL     1      77.759  51.790  40.713  1.00  0.00     0.117 A 
ATOM     10  N   UNL     1      78.146  51.811  41.959  1.00  0.00    -0.215 NA
ATOM     11  H   UNL     1      78.149  51.308  38.727  1.00  0.00     0.171 HD
ENDROOT
BRANCH   1  12
ATOM     12  C   UNL     1      79.607  51.523  44.668  1.00  0.00     0.114 C 
ATOM     13  C   UNL     1      79.332  53.028  44.725  1.00  0.00     0.056 C 
ATOM     14  C   UNL     1      78.904  53.420  46.131  1.00  0.00     0.162 C 
ATOM     15  O   UNL     1      77.772  52.655  46.544  1.00  0.00    -0.381 OA
ATOM     16  C   UNL     1      78.423  50.726  45.226  1.00  0.00     0.056 C 
ATOM     17  C   UNL     1      78.049  51.257  46.601  1.00  0.00     0.162 C 
ENDBRANCH   1  12
BRANCH   9  18
ATOM     18  C   UNL     1      76.430  52.388  40.312  1.00  0.00     0.131 C 
BRANCH  18  19
ATOM     19  C   UNL     1      75.851  51.699  39.105  1.00  0.00     0.048 A 
ATOM     20  C   UNL     1      75.372  52.431  38.024  1.00  0.00     0.024 A 
ATOM     21  N   UNL     1      75.867  50.338  39.122  1.00  0.00    -0.261 NA
ATOM     22  C   UNL     1      74.871  51.744  36.922  1.00  0.00     0.003 A 
ATOM     23  C   UNL     1      75.370  49.702  38.037  1.00  0.00     0.111 A 
ATOM     24  C   UNL     1      74.867  50.354  36.925  1.00  0.00     0.020 A 
ENDBRANCH  18  19
ENDBRANCH   9  18
TORSDOF 3
ENDMDL
MODEL 19
REMARK VINA RESULT:    -7.314      3.075      8.596
REMARK INTER + INTRA:          -9.364
REMARK INTER:                  -9.291
REMARK INTRA:                  -0.074
REMARK UNBOUND:                -0.768
REMARK SMILES O=c1[nH]c(Cc2ccccn2)nc2c1cnn2C1CCOCC1
REMARK SMILES IDX 17 1 13 2 14 3 15 4 16 5 2 6 1 7 3 8 4 9 12 10 18 12 19 13
REMARK SMILES IDX 20 14 21 15 23 16 22 17 5 18 6 19 7 20 11 21 8 22 10 23 9 24
REMARK H PARENT 3 11
ROOT
ATOM      1  N   UNL     1      83.272  49.125  37.868  1.00  0.00    -0.244 N 
ATOM      2  C   UNL     1      82.296  49.215  38.826  1.00  0.00     0.165 A 
ATOM      3  C   UNL     1      82.944  49.088  40.031  1.00  0.00     0.104 A 
ATOM      4  C   UNL     1      84.295  48.922  39.720  1.00  0.00     0.151 A 
ATOM      5  N   UNL     1      84.511  48.944  38.398  1.00  0.00    -0.178 NA
ATOM      6  C   UNL     1      82.178  49.135  41.241  1.00  0.00     0.262 A 
ATOM      7  O   UNL     1      82.649  48.987  42.362  1.00  0.00    -0.269 OA
ATOM      8  N   UNL     1      80.837  49.354  40.999  1.00  0.00    -0.310 N 
ATOM      9  C   UNL     1      80.278  49.444  39.729  1.00  0.00     0.117 A 
ATOM     10  N   UNL     1      80.966  49.390  38.621  1.00  0.00    -0.215 NA
ATOM     11  H   UNL     1      80.219  49.317  41.805  1.00  0.00     0.171 HD
ENDROOT
BRANCH   1  12
ATOM     12  C   UNL     1      83.129  49.191  36.421  1.00  0.00     0.114 C 
ATOM     13  C   UNL     1      84.449  49.498  35.710  1.00  0.00     0.056 C 
ATOM     14  C   UNL     1      84.226  49.543  34.206  1.00  0.00     0.162 C 
ATOM     15  O   UNL     1      83.643  48.325  33.747  1.00  0.00    -0.381 OA
ATOM     16  C   UNL     1      82.463  47.944  35.832  1.00  0.00     0.056 C 
ATOM     17  C   UNL     1      82.359  48.082  34.321  1.00  0.00     0.162 C 
ENDBRANCH   1  12
BRANCH   9  18
ATOM     18  C   UNL     1      78.783  49.658  39.694  1.00  0.00     0.131 C 
BRANCH  18  19
ATOM     19  C   UNL     1      78.332  50.610  40.769  1.00  0.00     0.048 A 
ATOM     20  C   UNL     1      77.367  51.578  40.510  1.00  0.00     0.024 A 
ATOM     21  N   UNL     1      78.887  50.437  42.000  1.00  0.00    -0.261 NA
ATOM     22  C   UNL     1      76.966  52.416  41.546  1.00  0.00     0.003 A 
ATOM     23  C   UNL     1      78.478  51.270  42.983  1.00  0.00     0.111 A 
ATOM     24  C   UNL     1      77.531  52.264  42.807  1.00  0.00     0.020 A 
ENDBRANCH  18  19
ENDBRANCH   9  18
TORSDOF 3
ENDMDL
MODEL 20
REMARK VINA RESULT:    -7.277      4.175      7.501
REMARK INTER + INTRA:          -9.322
REMARK INTER:                  -8.615
REMARK INTRA:                  -0.706
REMARK UNBOUND:                -0.768
REMARK SMILES O=c1[nH]c(Cc2ccccn2)nc2c1cnn2C1CCOCC1
REMARK SMILES IDX 17 1 13 2 14 3 15 4 16 5 2 6 1 7 3 8 4 9 12 10 18 12 19 13
REMARK SMILES IDX 20 14 21 15 23 16 22 17 5 18 6 19 7 20 11 21 8 22 10 23 9 24
REMARK H PARENT 3 11
ROOT
ATOM      1  N   UNL     1      81.642  49.886  37.400  1.00  0.00    -0.244 N 
ATOM      2  C   UNL     1      80.321  50.243  37.320  1.00  0.00     0.165 A 
ATOM      3  C   UNL     1      80.175  50.855  36.098  1.00  0.00     0.104 A 
ATOM      4  C   UNL     1      81.440  50.831  35.507  1.00  0.00     0.151 A 
ATOM      5  N   UNL     1      82.348  50.239  36.293  1.00  0.00    -0.178 NA
ATOM      6  C   UNL     1      78.886  51.353  35.720  1.00  0.00     0.262 A 
ATOM      7  O   UNL     1      78.656  51.952  34.676  1.00  0.00    -0.269 OA
ATOM      8  N   UNL     1      77.926  51.091  36.676  1.00  0.00    -0.310 N 
ATOM      9  C   UNL     1      78.190  50.483  37.899  1.00  0.00     0.117 A 
ATOM     10  N   UNL     1      79.363  50.037  38.257  1.00  0.00    -0.215 NA
ATOM     11  H   UNL     1      77.004  51.488  36.515  1.00  0.00     0.171 HD
ENDROOT
BRANCH   1  12
ATOM     12  C   UNL     1      82.332  49.210  38.489  1.00  0.00     0.114 C 
ATOM     13  C   UNL     1      83.773  48.833  38.133  1.00  0.00     0.056 C 
ATOM     14  C   UNL     1      84.432  48.142  39.316  1.00  0.00     0.162 C 
ATOM     15  O   UNL     1      84.368  48.965  40.479  1.00  0.00    -0.381 OA
ATOM     16  C   UNL     1      82.278  49.995  39.804  1.00  0.00     0.056 C 
ATOM     17  C   UNL     1      83.028  49.234  40.887  1.00  0.00     0.162 C 
ENDBRANCH   1  12
BRANCH   9  18
ATOM     18  C   UNL     1      76.995  50.318  38.810  1.00  0.00     0.131 C 
BRANCH  18  19
ATOM     19  C   UNL     1      76.516  51.642  39.344  1.00  0.00     0.048 A 
ATOM     20  C   UNL     1      76.688  51.979  40.683  1.00  0.00     0.024 A 
ATOM     21  N   UNL     1      75.954  52.489  38.440  1.00  0.00    -0.261 NA
ATOM     22  C   UNL     1      76.251  53.226  41.119  1.00  0.00     0.003 A 
ATOM     23  C   UNL     1      75.537  53.691  38.897  1.00  0.00     0.111 A 
ATOM     24  C   UNL     1      75.662  54.100  40.213  1.00  0.00     0.020 A 
ENDBRANCH  18  19
ENDBRANCH   9  18
TORSDOF 3
ENDMDL
