MODEL 1
REMARK VINA RESULT:    -9.155      0.000      0.000
REMARK INTER + INTRA:         -15.149
REMARK INTER:                 -13.437
REMARK INTRA:                  -1.713
REMARK UNBOUND:                -1.713
REMARK SMILES CN1CCN(CCOc2cc3c(c(OC4CCOCC4)c2)C(Nc2c(Cl)ccc4c2OCO4)N=CN3)CC1
REMARK SMILES IDX 8 1 7 2 6 3 5 4 2 5 3 6 38 7 4 8 37 9 1 10 9 11 21 12 10 13
REMARK SMILES IDX 13 14 11 15 12 16 36 17 22 18 35 19 34 20 14 22 15 23 16 24
REMARK SMILES IDX 20 25 17 26 19 27 18 28 23 29 24 31 30 32 25 33 31 34 29 35
REMARK SMILES IDX 27 36 32 37 33 38 28 39 26 40
REMARK H PARENT 36 21 23 30
ROOT
ATOM      1  O   UNL     1      -9.118  16.087  -6.390  1.00  0.00    -0.492 OA
ENDROOT
BRANCH   1   2
ATOM      2  C   UNL     1      -7.845  15.489  -6.455  1.00  0.00     0.245 C 
BRANCH   2   3
ATOM      3  C   UNL     1      -7.133  15.475  -5.091  1.00  0.00     0.126 C 
BRANCH   3   4
ATOM      4  N   UNL     1      -7.978  15.255  -3.923  1.00  0.00    -0.297 NA
ATOM      5  N   UNL     1      -8.434  13.995  -1.325  1.00  0.00    -0.304 NA
ATOM      6  C   UNL     1      -9.067  13.499  -2.535  1.00  0.00     0.099 C 
ATOM      7  C   UNL     1      -8.188  15.420  -1.455  1.00  0.00     0.099 C 
ATOM      8  C   UNL     1      -8.238  13.825  -3.786  1.00  0.00     0.100 C 
ATOM      9  C   UNL     1      -7.335  15.719  -2.702  1.00  0.00     0.100 C 
ATOM     10  C   UNL     1      -9.274  13.722  -0.172  1.00  0.00     0.105 C 
ENDBRANCH   3   4
ENDBRANCH   2   3
ENDBRANCH   1   2
BRANCH   1  11
ATOM     11  C   UNL     1      -9.935  15.874  -7.473  1.00  0.00     0.125 A 
ATOM     12  C   UNL     1      -9.697  14.887  -8.358  1.00  0.00     0.093 A 
ATOM     13  C   UNL     1     -11.022  16.615  -7.715  1.00  0.00     0.073 A 
ATOM     14  C   UNL     1     -10.463  14.608  -9.437  1.00  0.00     0.132 A 
ATOM     15  C   UNL     1     -11.808  16.381  -8.776  1.00  0.00     0.054 A 
ATOM     16  C   UNL     1     -11.561  15.381  -9.667  1.00  0.00     0.062 A 
ATOM     17  N   UNL     1     -12.801  17.161  -8.883  1.00  0.00    -0.346 N 
ATOM     18  C   UNL     1     -12.439  15.258 -10.703  1.00  0.00     0.236 C 
ATOM     19  C   UNL     1     -13.559  16.969  -9.869  1.00  0.00     0.193 C 
ATOM     20  N   UNL     1     -13.418  16.077 -10.750  1.00  0.00    -0.246 NA
ATOM     21  H   UNL     1     -12.970  17.879  -8.230  1.00  0.00     0.167 HD
BRANCH  14  22
ATOM     22  O   UNL     1     -10.107  13.578 -10.288  1.00  0.00    -0.490 OA
BRANCH  22  23
ATOM     23  C   UNL     1     -10.000  12.240  -9.865  1.00  0.00     0.178 C 
ATOM     24  C   UNL     1     -11.103  11.819  -8.893  1.00  0.00     0.073 C 
ATOM     25  C   UNL     1     -10.099  11.392 -11.143  1.00  0.00     0.073 C 
ATOM     26  C   UNL     1     -11.162  10.301  -8.752  1.00  0.00     0.164 C 
ATOM     27  C   UNL     1     -10.220   9.907 -10.819  1.00  0.00     0.164 C 
ATOM     28  O   UNL     1     -11.341   9.688 -10.006  1.00  0.00    -0.381 OA
ENDBRANCH  22  23
ENDBRANCH  14  22
BRANCH  18  29
ATOM     29  N   UNL     1     -12.534  14.455 -11.699  1.00  0.00    -0.355 N 
ATOM     30  H   UNL     1     -11.640  13.923 -11.866  1.00  0.00     0.163 HD
BRANCH  29  31
ATOM     31  C   UNL     1     -13.418  14.112 -12.559  1.00  0.00     0.102 A 
ATOM     32  C   UNL     1     -13.679  14.791 -13.700  1.00  0.00     0.190 A 
ATOM     33  C   UNL     1     -14.171  12.995 -12.353  1.00  0.00     0.068 A 
ATOM     34  O   UNL     1     -13.135  15.819 -14.108  1.00  0.00    -0.451 OA
ATOM     35  C   UNL     1     -14.621  14.405 -14.570  1.00  0.00     0.168 A 
ATOM     36  C   UNL     1     -15.119  12.616 -13.233  1.00  0.00     0.027 A 
ATOM     37  C   UNL     1     -13.681  16.149 -15.384  1.00  0.00     0.468 C 
ATOM     38  O   UNL     1     -14.694  15.161 -15.538  1.00  0.00    -0.454 OA
ATOM     39  C   UNL     1     -15.356  13.312 -14.353  1.00  0.00     0.052 A 
ATOM     40  Cl  UNL     1     -14.021  11.965 -10.958  1.00  0.00    -0.082 Cl
ENDBRANCH  29  31
ENDBRANCH  18  29
ENDBRANCH   1  11
TORSDOF 8
ENDMDL
MODEL 2
REMARK VINA RESULT:    -8.974      2.898      4.050
REMARK INTER + INTRA:         -14.884
REMARK INTER:                 -12.783
REMARK INTRA:                  -2.102
REMARK UNBOUND:                -1.713
REMARK SMILES CN1CCN(CCOc2cc3c(c(OC4CCOCC4)c2)C(Nc2c(Cl)ccc4c2OCO4)N=CN3)CC1
REMARK SMILES IDX 8 1 7 2 6 3 5 4 2 5 3 6 38 7 4 8 37 9 1 10 9 11 21 12 10 13
REMARK SMILES IDX 13 14 11 15 12 16 36 17 22 18 35 19 34 20 14 22 15 23 16 24
REMARK SMILES IDX 20 25 17 26 19 27 18 28 23 29 24 31 30 32 25 33 31 34 29 35
REMARK SMILES IDX 27 36 32 37 33 38 28 39 26 40
REMARK H PARENT 36 21 23 30
ROOT
ATOM      1  O   UNL     1     -10.743  16.159  -8.025  1.00  0.00    -0.492 OA
ENDROOT
BRANCH   1   2
ATOM      2  C   UNL     1      -9.685  15.237  -7.908  1.00  0.00     0.245 C 
BRANCH   2   3
ATOM      3  C   UNL     1      -9.837  14.322  -6.681  1.00  0.00     0.126 C 
BRANCH   3   4
ATOM      4  N   UNL     1      -9.760  12.887  -6.931  1.00  0.00    -0.297 NA
ATOM      5  N   UNL     1      -9.635  10.643  -8.800  1.00  0.00    -0.304 NA
ATOM      6  C   UNL     1     -10.864  10.993  -8.110  1.00  0.00     0.099 C 
ATOM      7  C   UNL     1      -8.496  11.031  -7.989  1.00  0.00     0.099 C 
ATOM      8  C   UNL     1     -10.906  12.483  -7.741  1.00  0.00     0.100 C 
ATOM      9  C   UNL     1      -8.547  12.534  -7.652  1.00  0.00     0.100 C 
ATOM     10  C   UNL     1      -9.605   9.218  -9.079  1.00  0.00     0.105 C 
ENDBRANCH   3   4
ENDBRANCH   2   3
ENDBRANCH   1   2
BRANCH   1  11
ATOM     11  C   UNL     1     -11.633  15.921  -9.043  1.00  0.00     0.125 A 
ATOM     12  C   UNL     1     -11.479  14.890  -9.895  1.00  0.00     0.093 A 
ATOM     13  C   UNL     1     -12.714  16.683  -9.250  1.00  0.00     0.073 A 
ATOM     14  C   UNL     1     -12.321  14.586 -10.909  1.00  0.00     0.132 A 
ATOM     15  C   UNL     1     -13.573  16.425 -10.246  1.00  0.00     0.054 A 
ATOM     16  C   UNL     1     -13.411  15.379 -11.104  1.00  0.00     0.062 A 
ATOM     17  N   UNL     1     -14.551  17.228 -10.326  1.00  0.00    -0.346 N 
ATOM     18  C   UNL     1     -14.358  15.235 -12.076  1.00  0.00     0.236 C 
ATOM     19  C   UNL     1     -15.376  17.014 -11.251  1.00  0.00     0.193 C 
ATOM     20  N   UNL     1     -15.315  16.079 -12.097  1.00  0.00    -0.246 NA
ATOM     21  H   UNL     1     -14.658  17.979  -9.697  1.00  0.00     0.167 HD
BRANCH  14  22
ATOM     22  O   UNL     1     -12.048  13.509 -11.732  1.00  0.00    -0.490 OA
BRANCH  22  23
ATOM     23  C   UNL     1     -12.044  12.179 -11.274  1.00  0.00     0.178 C 
ATOM     24  C   UNL     1     -13.437  11.647 -10.934  1.00  0.00     0.073 C 
ATOM     25  C   UNL     1     -11.450  11.346 -12.422  1.00  0.00     0.073 C 
ATOM     26  C   UNL     1     -13.428  10.128 -10.798  1.00  0.00     0.164 C 
ATOM     27  C   UNL     1     -11.585   9.851 -12.155  1.00  0.00     0.164 C 
ATOM     28  O   UNL     1     -12.935   9.523 -11.968  1.00  0.00    -0.381 OA
ENDBRANCH  22  23
ENDBRANCH  14  22
BRANCH  18  29
ATOM     29  N   UNL     1     -14.538  14.393 -13.025  1.00  0.00    -0.355 N 
ATOM     30  H   UNL     1     -14.399  13.399 -12.704  1.00  0.00     0.163 HD
BRANCH  29  31
ATOM     31  C   UNL     1     -14.843  14.415 -14.268  1.00  0.00     0.102 A 
ATOM     32  C   UNL     1     -15.905  13.774 -14.807  1.00  0.00     0.190 A 
ATOM     33  C   UNL     1     -14.072  15.120 -15.145  1.00  0.00     0.068 A 
ATOM     34  O   UNL     1     -16.744  13.082 -14.226  1.00  0.00    -0.451 OA
ATOM     35  C   UNL     1     -16.183  13.813 -16.116  1.00  0.00     0.168 A 
ATOM     36  C   UNL     1     -14.358  15.151 -16.461  1.00  0.00     0.027 A 
ATOM     37  C   UNL     1     -17.720  12.656 -15.176  1.00  0.00     0.468 C 
ATOM     38  O   UNL     1     -17.190  13.164 -16.395  1.00  0.00    -0.454 OA
ATOM     39  C   UNL     1     -15.416  14.502 -16.966  1.00  0.00     0.052 A 
ATOM     40  Cl  UNL     1     -12.654  16.019 -14.687  1.00  0.00    -0.082 Cl
ENDBRANCH  29  31
ENDBRANCH  18  29
ENDBRANCH   1  11
TORSDOF 8
ENDMDL
MODEL 3
REMARK VINA RESULT:    -8.965      1.624      2.072
REMARK INTER + INTRA:         -14.871
REMARK INTER:                 -13.101
REMARK INTRA:                  -1.770
REMARK UNBOUND:                -1.713
REMARK SMILES CN1CCN(CCOc2cc3c(c(OC4CCOCC4)c2)C(Nc2c(Cl)ccc4c2OCO4)N=CN3)CC1
REMARK SMILES IDX 8 1 7 2 6 3 5 4 2 5 3 6 38 7 4 8 37 9 1 10 9 11 21 12 10 13
REMARK SMILES IDX 13 14 11 15 12 16 36 17 22 18 35 19 34 20 14 22 15 23 16 24
REMARK SMILES IDX 20 25 17 26 19 27 18 28 23 29 24 31 30 32 25 33 31 34 29 35
REMARK SMILES IDX 27 36 32 37 33 38 28 39 26 40
REMARK H PARENT 36 21 23 30
ROOT
ATOM      1  O   UNL     1      -9.399  16.315  -6.154  1.00  0.00    -0.492 OA
ENDROOT
BRANCH   1   2
ATOM      2  C   UNL     1      -8.626  15.238  -5.682  1.00  0.00     0.245 C 
BRANCH   2   3
ATOM      3  C   UNL     1      -7.844  15.592  -4.406  1.00  0.00     0.126 C 
BRANCH   3   4
ATOM      4  N   UNL     1      -8.524  15.342  -3.140  1.00  0.00    -0.297 NA
ATOM      5  N   UNL     1      -8.450  14.465  -0.353  1.00  0.00    -0.304 NA
ATOM      6  C   UNL     1      -8.967  13.611  -1.407  1.00  0.00     0.099 C 
ATOM      7  C   UNL     1      -8.646  15.857  -0.714  1.00  0.00     0.099 C 
ATOM      8  C   UNL     1      -8.339  13.943  -2.768  1.00  0.00     0.100 C 
ATOM      9  C   UNL     1      -7.987  16.171  -2.071  1.00  0.00     0.100 C 
ATOM     10  C   UNL     1      -9.110  14.164   0.906  1.00  0.00     0.105 C 
ENDBRANCH   3   4
ENDBRANCH   2   3
ENDBRANCH   1   2
BRANCH   1  11
ATOM     11  C   UNL     1     -10.132  16.072  -7.290  1.00  0.00     0.125 A 
ATOM     12  C   UNL     1      -9.788  15.108  -8.164  1.00  0.00     0.093 A 
ATOM     13  C   UNL     1     -11.237  16.761  -7.597  1.00  0.00     0.073 A 
ATOM     14  C   UNL     1     -10.467  14.802  -9.293  1.00  0.00     0.132 A 
ATOM     15  C   UNL     1     -11.940  16.499  -8.709  1.00  0.00     0.054 A 
ATOM     16  C   UNL     1     -11.585  15.521  -9.589  1.00  0.00     0.062 A 
ATOM     17  N   UNL     1     -12.963  17.229  -8.875  1.00  0.00    -0.346 N 
ATOM     18  C   UNL     1     -12.388  15.365 -10.681  1.00  0.00     0.236 C 
ATOM     19  C   UNL     1     -13.644  17.009  -9.909  1.00  0.00     0.193 C 
ATOM     20  N   UNL     1     -13.401  16.134 -10.785  1.00  0.00    -0.246 NA
ATOM     21  H   UNL     1     -13.210  17.931  -8.230  1.00  0.00     0.167 HD
BRANCH  14  22
ATOM     22  O   UNL     1     -10.005  13.800 -10.126  1.00  0.00    -0.490 OA
BRANCH  22  23
ATOM     23  C   UNL     1      -9.889  12.459  -9.715  1.00  0.00     0.178 C 
ATOM     24  C   UNL     1     -11.023  12.001  -8.797  1.00  0.00     0.073 C 
ATOM     25  C   UNL     1      -9.915  11.626 -11.007  1.00  0.00     0.073 C 
ATOM     26  C   UNL     1     -11.055  10.481  -8.678  1.00  0.00     0.164 C 
ATOM     27  C   UNL     1     -10.017  10.134 -10.708  1.00  0.00     0.164 C 
ATOM     28  O   UNL     1     -11.167   9.882  -9.946  1.00  0.00    -0.381 OA
ENDBRANCH  22  23
ENDBRANCH  14  22
BRANCH  18  29
ATOM     29  N   UNL     1     -12.378  14.569 -11.686  1.00  0.00    -0.355 N 
ATOM     30  H   UNL     1     -11.407  14.429 -12.071  1.00  0.00     0.163 HD
BRANCH  29  31
ATOM     31  C   UNL     1     -13.222  13.887 -12.364  1.00  0.00     0.102 A 
ATOM     32  C   UNL     1     -13.752  12.709 -11.963  1.00  0.00     0.190 A 
ATOM     33  C   UNL     1     -13.644  14.339 -13.579  1.00  0.00     0.068 A 
ATOM     34  O   UNL     1     -13.534  12.101 -10.913  1.00  0.00    -0.451 OA
ATOM     35  C   UNL     1     -14.625  12.019 -12.708  1.00  0.00     0.168 A 
ATOM     36  C   UNL     1     -14.521  13.637 -14.323  1.00  0.00     0.027 A 
ATOM     37  C   UNL     1     -14.356  10.936 -10.881  1.00  0.00     0.468 C 
ATOM     38  O   UNL     1     -14.981  10.978 -12.158  1.00  0.00    -0.454 OA
ATOM     39  C   UNL     1     -15.026  12.471 -13.900  1.00  0.00     0.052 A 
ATOM     40  Cl  UNL     1     -13.099  15.824 -14.306  1.00  0.00    -0.082 Cl
ENDBRANCH  29  31
ENDBRANCH  18  29
ENDBRANCH   1  11
TORSDOF 8
ENDMDL
MODEL 4
REMARK VINA RESULT:    -8.956      1.759      2.501
REMARK INTER + INTRA:         -14.857
REMARK INTER:                 -12.947
REMARK INTRA:                  -1.911
REMARK UNBOUND:                -1.713
REMARK SMILES CN1CCN(CCOc2cc3c(c(OC4CCOCC4)c2)C(Nc2c(Cl)ccc4c2OCO4)N=CN3)CC1
REMARK SMILES IDX 8 1 7 2 6 3 5 4 2 5 3 6 38 7 4 8 37 9 1 10 9 11 21 12 10 13
REMARK SMILES IDX 13 14 11 15 12 16 36 17 22 18 35 19 34 20 14 22 15 23 16 24
REMARK SMILES IDX 20 25 17 26 19 27 18 28 23 29 24 31 30 32 25 33 31 34 29 35
REMARK SMILES IDX 27 36 32 37 33 38 28 39 26 40
REMARK H PARENT 36 21 23 30
ROOT
ATOM      1  O   UNL     1     -10.141  12.655  -6.447  1.00  0.00    -0.492 OA
ENDROOT
BRANCH   1   2
ATOM      2  C   UNL     1      -8.796  12.246  -6.511  1.00  0.00     0.245 C 
BRANCH   2   3
ATOM      3  C   UNL     1      -7.855  13.203  -5.759  1.00  0.00     0.126 C 
BRANCH   3   4
ATOM      4  N   UNL     1      -8.336  14.567  -5.572  1.00  0.00    -0.297 NA
ATOM      5  N   UNL     1      -7.887  17.311  -4.670  1.00  0.00    -0.304 NA
ATOM      6  C   UNL     1      -8.661  16.367  -3.884  1.00  0.00     0.099 C 
ATOM      7  C   UNL     1      -7.993  16.974  -6.078  1.00  0.00     0.099 C 
ATOM      8  C   UNL     1      -8.239  14.917  -4.158  1.00  0.00     0.100 C 
ATOM      9  C   UNL     1      -7.542  15.523  -6.331  1.00  0.00     0.100 C 
ATOM     10  C   UNL     1      -8.354  18.666  -4.431  1.00  0.00     0.105 C 
ENDBRANCH   3   4
ENDBRANCH   2   3
ENDBRANCH   1   2
BRANCH   1  11
ATOM     11  C   UNL     1     -10.692  13.084  -7.630  1.00  0.00     0.125 A 
ATOM     12  C   UNL     1     -10.805  12.271  -8.697  1.00  0.00     0.093 A 
ATOM     13  C   UNL     1     -11.164  14.325  -7.798  1.00  0.00     0.073 A 
ATOM     14  C   UNL     1     -11.349  12.619  -9.886  1.00  0.00     0.132 A 
ATOM     15  C   UNL     1     -11.705  14.718  -8.960  1.00  0.00     0.054 A 
ATOM     16  C   UNL     1     -11.816  13.889 -10.036  1.00  0.00     0.062 A 
ATOM     17  N   UNL     1     -12.108  15.919  -8.979  1.00  0.00    -0.346 N 
ATOM     18  C   UNL     1     -12.383  14.420 -11.158  1.00  0.00     0.236 C 
ATOM     19  C   UNL     1     -12.621  16.320 -10.056  1.00  0.00     0.193 C 
ATOM     20  N   UNL     1     -12.767  15.636 -11.107  1.00  0.00    -0.246 NA
ATOM     21  H   UNL     1     -12.024  16.508  -8.194  1.00  0.00     0.167 HD
BRANCH  14  22
ATOM     22  O   UNL     1     -11.394  11.700 -10.918  1.00  0.00    -0.490 OA
BRANCH  22  23
ATOM     23  C   UNL     1     -10.829  10.415 -10.822  1.00  0.00     0.178 C 
ATOM     24  C   UNL     1     -11.857   9.287 -10.920  1.00  0.00     0.073 C 
ATOM     25  C   UNL     1      -9.844  10.307 -11.998  1.00  0.00     0.073 C 
ATOM     26  C   UNL     1     -11.179   7.945 -11.176  1.00  0.00     0.164 C 
ATOM     27  C   UNL     1      -9.315   8.885 -12.154  1.00  0.00     0.164 C 
ATOM     28  O   UNL     1     -10.385   7.998 -12.336  1.00  0.00    -0.381 OA
ENDBRANCH  22  23
ENDBRANCH  14  22
BRANCH  18  29
ATOM     29  N   UNL     1     -12.655  13.957 -12.322  1.00  0.00    -0.355 N 
ATOM     30  H   UNL     1     -11.814  13.517 -12.780  1.00  0.00     0.163 HD
BRANCH  29  31
ATOM     31  C   UNL     1     -13.670  13.876 -13.097  1.00  0.00     0.102 A 
ATOM     32  C   UNL     1     -13.888  14.684 -14.159  1.00  0.00     0.190 A 
ATOM     33  C   UNL     1     -14.623  12.926 -12.873  1.00  0.00     0.068 A 
ATOM     34  O   UNL     1     -13.178  15.606 -14.565  1.00  0.00    -0.451 OA
ATOM     35  C   UNL     1     -14.971  14.573 -14.940  1.00  0.00     0.168 A 
ATOM     36  C   UNL     1     -15.711  12.824 -13.662  1.00  0.00     0.027 A 
ATOM     37  C   UNL     1     -13.761  16.143 -15.751  1.00  0.00     0.468 C 
ATOM     38  O   UNL     1     -14.973  15.404 -15.847  1.00  0.00    -0.454 OA
ATOM     39  C   UNL     1     -15.900  13.643 -14.706  1.00  0.00     0.052 A 
ATOM     40  Cl  UNL     1     -14.563  11.778 -11.566  1.00  0.00    -0.082 Cl
ENDBRANCH  29  31
ENDBRANCH  18  29
ENDBRANCH   1  11
TORSDOF 8
ENDMDL
MODEL 5
REMARK VINA RESULT:    -8.828      1.670      2.415
REMARK INTER + INTRA:         -14.670
REMARK INTER:                 -12.714
REMARK INTRA:                  -1.956
REMARK UNBOUND:                -1.713
REMARK SMILES CN1CCN(CCOc2cc3c(c(OC4CCOCC4)c2)C(Nc2c(Cl)ccc4c2OCO4)N=CN3)CC1
REMARK SMILES IDX 8 1 7 2 6 3 5 4 2 5 3 6 38 7 4 8 37 9 1 10 9 11 21 12 10 13
REMARK SMILES IDX 13 14 11 15 12 16 36 17 22 18 35 19 34 20 14 22 15 23 16 24
REMARK SMILES IDX 20 25 17 26 19 27 18 28 23 29 24 31 30 32 25 33 31 34 29 35
REMARK SMILES IDX 27 36 32 37 33 38 28 39 26 40
REMARK H PARENT 36 21 23 30
ROOT
ATOM      1  O   UNL     1      -9.749  16.403  -6.695  1.00  0.00    -0.492 OA
ENDROOT
BRANCH   1   2
ATOM      2  C   UNL     1      -8.473  15.811  -6.655  1.00  0.00     0.245 C 
BRANCH   2   3
ATOM      3  C   UNL     1      -8.235  15.016  -5.360  1.00  0.00     0.126 C 
BRANCH   3   4
ATOM      4  N   UNL     1      -7.962  13.591  -5.518  1.00  0.00    -0.297 NA
ATOM      5  N   UNL     1      -7.466  11.281  -7.238  1.00  0.00    -0.304 NA
ATOM      6  C   UNL     1      -8.759  11.504  -6.615  1.00  0.00     0.099 C 
ATOM      7  C   UNL     1      -6.422  11.862  -6.413  1.00  0.00     0.099 C 
ATOM      8  C   UNL     1      -9.009  12.994  -6.341  1.00  0.00     0.100 C 
ATOM      9  C   UNL     1      -6.682  13.361  -6.172  1.00  0.00     0.100 C 
ATOM     10  C   UNL     1      -7.239   9.858  -7.426  1.00  0.00     0.105 C 
ENDBRANCH   3   4
ENDBRANCH   2   3
ENDBRANCH   1   2
BRANCH   1  11
ATOM     11  C   UNL     1     -10.508  16.115  -7.803  1.00  0.00     0.125 A 
ATOM     12  C   UNL     1     -10.202  15.095  -8.626  1.00  0.00     0.093 A 
ATOM     13  C   UNL     1     -11.601  16.813  -8.131  1.00  0.00     0.073 A 
ATOM     14  C   UNL     1     -10.909  14.743  -9.725  1.00  0.00     0.132 A 
ATOM     15  C   UNL     1     -12.329  16.507  -9.214  1.00  0.00     0.054 A 
ATOM     16  C   UNL     1     -12.014  15.472 -10.043  1.00  0.00     0.062 A 
ATOM     17  N   UNL     1     -13.336  17.252  -9.406  1.00  0.00    -0.346 N 
ATOM     18  C   UNL     1     -12.839  15.274 -11.111  1.00  0.00     0.236 C 
ATOM     19  C   UNL     1     -14.041  16.991 -10.415  1.00  0.00     0.193 C 
ATOM     20  N   UNL     1     -13.835  16.062 -11.243  1.00  0.00    -0.246 NA
ATOM     21  H   UNL     1     -13.555  17.996  -8.798  1.00  0.00     0.167 HD
BRANCH  14  22
ATOM     22  O   UNL     1     -10.487  13.683 -10.506  1.00  0.00    -0.490 OA
BRANCH  22  23
ATOM     23  C   UNL     1     -10.116  12.437  -9.968  1.00  0.00     0.178 C 
ATOM     24  C   UNL     1     -11.306  11.591  -9.513  1.00  0.00     0.073 C 
ATOM     25  C   UNL     1      -9.374  11.702 -11.096  1.00  0.00     0.073 C 
ATOM     26  C   UNL     1     -10.895  10.141  -9.284  1.00  0.00     0.164 C 
ATOM     27  C   UNL     1      -9.102  10.247 -10.730  1.00  0.00     0.164 C 
ATOM     28  O   UNL     1     -10.311   9.597 -10.443  1.00  0.00    -0.381 OA
ENDBRANCH  22  23
ENDBRANCH  14  22
BRANCH  18  29
ATOM     29  N   UNL     1     -12.866  14.423 -12.069  1.00  0.00    -0.355 N 
ATOM     30  H   UNL     1     -11.972  13.868 -12.132  1.00  0.00     0.163 HD
BRANCH  29  31
ATOM     31  C   UNL     1     -13.681  14.049 -12.983  1.00  0.00     0.102 A 
ATOM     32  C   UNL     1     -13.891  14.718 -14.140  1.00  0.00     0.190 A 
ATOM     33  C   UNL     1     -14.408  12.907 -12.822  1.00  0.00     0.068 A 
ATOM     34  O   UNL     1     -13.356  15.764 -14.516  1.00  0.00    -0.451 OA
ATOM     35  C   UNL     1     -14.761  14.299 -15.068  1.00  0.00     0.168 A 
ATOM     36  C   UNL     1     -15.283  12.495 -13.760  1.00  0.00     0.027 A 
ATOM     37  C   UNL     1     -13.830  16.073 -15.826  1.00  0.00     0.468 C 
ATOM     38  O   UNL     1     -14.798  15.052 -16.040  1.00  0.00    -0.454 OA
ATOM     39  C   UNL     1     -15.472  13.182 -14.895  1.00  0.00     0.052 A 
ATOM     40  Cl  UNL     1     -14.312  11.884 -11.417  1.00  0.00    -0.082 Cl
ENDBRANCH  29  31
ENDBRANCH  18  29
ENDBRANCH   1  11
TORSDOF 8
ENDMDL
MODEL 6
REMARK VINA RESULT:    -8.680      1.603      2.442
REMARK INTER + INTRA:         -14.452
REMARK INTER:                 -13.055
REMARK INTRA:                  -1.396
REMARK UNBOUND:                -1.713
REMARK SMILES CN1CCN(CCOc2cc3c(c(OC4CCOCC4)c2)C(Nc2c(Cl)ccc4c2OCO4)N=CN3)CC1
REMARK SMILES IDX 8 1 7 2 6 3 5 4 2 5 3 6 38 7 4 8 37 9 1 10 9 11 21 12 10 13
REMARK SMILES IDX 13 14 11 15 12 16 36 17 22 18 35 19 34 20 14 22 15 23 16 24
REMARK SMILES IDX 20 25 17 26 19 27 18 28 23 29 24 31 30 32 25 33 31 34 29 35
REMARK SMILES IDX 27 36 32 37 33 38 28 39 26 40
REMARK H PARENT 36 21 23 30
ROOT
ATOM      1  O   UNL     1      -9.713  16.157  -6.560  1.00  0.00    -0.492 OA
ENDROOT
BRANCH   1   2
ATOM      2  C   UNL     1      -8.608  15.306  -6.372  1.00  0.00     0.245 C 
BRANCH   2   3
ATOM      3  C   UNL     1      -8.000  15.436  -4.965  1.00  0.00     0.126 C 
BRANCH   3   4
ATOM      4  N   UNL     1      -7.443  16.739  -4.619  1.00  0.00    -0.297 NA
ATOM      5  N   UNL     1      -7.281  19.624  -5.062  1.00  0.00    -0.304 NA
ATOM      6  C   UNL     1      -6.250  18.720  -5.541  1.00  0.00     0.099 C 
ATOM      7  C   UNL     1      -7.909  19.063  -3.879  1.00  0.00     0.099 C 
ATOM      8  C   UNL     1      -6.803  17.312  -5.800  1.00  0.00     0.100 C 
ATOM      9  C   UNL     1      -8.477  17.661  -4.171  1.00  0.00     0.100 C 
ATOM     10  C   UNL     1      -6.710  20.928  -4.770  1.00  0.00     0.105 C 
ENDBRANCH   3   4
ENDBRANCH   2   3
ENDBRANCH   1   2
BRANCH   1  11
ATOM     11  C   UNL     1     -10.458  15.928  -7.691  1.00  0.00     0.125 A 
ATOM     12  C   UNL     1     -10.133  14.962  -8.571  1.00  0.00     0.093 A 
ATOM     13  C   UNL     1     -11.555  16.634  -7.989  1.00  0.00     0.073 A 
ATOM     14  C   UNL     1     -10.825  14.670  -9.696  1.00  0.00     0.132 A 
ATOM     15  C   UNL     1     -12.269  16.385  -9.096  1.00  0.00     0.054 A 
ATOM     16  C   UNL     1     -11.935  15.406  -9.981  1.00  0.00     0.062 A 
ATOM     17  N   UNL     1     -13.282  17.131  -9.253  1.00  0.00    -0.346 N 
ATOM     18  C   UNL     1     -12.748  15.264 -11.068  1.00  0.00     0.236 C 
ATOM     19  C   UNL     1     -13.974  16.924 -10.283  1.00  0.00     0.193 C 
ATOM     20  N   UNL     1     -13.750  16.049 -11.163  1.00  0.00    -0.246 NA
ATOM     21  H   UNL     1     -13.514  17.835  -8.603  1.00  0.00     0.167 HD
BRANCH  14  22
ATOM     22  O   UNL     1     -10.384  13.663 -10.535  1.00  0.00    -0.490 OA
BRANCH  22  23
ATOM     23  C   UNL     1     -10.275  12.321 -10.126  1.00  0.00     0.178 C 
ATOM     24  C   UNL     1     -11.358  11.895  -9.134  1.00  0.00     0.073 C 
ATOM     25  C   UNL     1     -10.406  11.485 -11.410  1.00  0.00     0.073 C 
ATOM     26  C   UNL     1     -11.420  10.377  -9.006  1.00  0.00     0.164 C 
ATOM     27  C   UNL     1     -10.526   9.997 -11.097  1.00  0.00     0.164 C 
ATOM     28  O   UNL     1     -11.630   9.777 -10.261  1.00  0.00    -0.381 OA
ENDBRANCH  22  23
ENDBRANCH  14  22
BRANCH  18  29
ATOM     29  N   UNL     1     -12.756  14.472 -12.076  1.00  0.00    -0.355 N 
ATOM     30  H   UNL     1     -11.820  14.012 -12.227  1.00  0.00     0.163 HD
BRANCH  29  31
ATOM     31  C   UNL     1     -13.589  14.074 -12.963  1.00  0.00     0.102 A 
ATOM     32  C   UNL     1     -13.837  14.722 -14.124  1.00  0.00     0.190 A 
ATOM     33  C   UNL     1     -14.297  12.926 -12.765  1.00  0.00     0.068 A 
ATOM     34  O   UNL     1     -13.326  15.768 -14.529  1.00  0.00    -0.451 OA
ATOM     35  C   UNL     1     -14.726  14.278 -15.022  1.00  0.00     0.168 A 
ATOM     36  C   UNL     1     -15.192  12.489 -13.673  1.00  0.00     0.027 A 
ATOM     37  C   UNL     1     -13.838  16.051 -15.831  1.00  0.00     0.468 C 
ATOM     38  O   UNL     1     -14.797  15.015 -16.004  1.00  0.00    -0.454 OA
ATOM     39  C   UNL     1     -15.418  13.155 -14.814  1.00  0.00     0.052 A 
ATOM     40  Cl  UNL     1     -14.153  11.926 -11.348  1.00  0.00    -0.082 Cl
ENDBRANCH  29  31
ENDBRANCH  18  29
ENDBRANCH   1  11
TORSDOF 8
ENDMDL
MODEL 7
REMARK VINA RESULT:    -8.588      2.669      9.438
REMARK INTER + INTRA:         -14.317
REMARK INTER:                 -12.767
REMARK INTRA:                  -1.550
REMARK UNBOUND:                -1.713
REMARK SMILES CN1CCN(CCOc2cc3c(c(OC4CCOCC4)c2)C(Nc2c(Cl)ccc4c2OCO4)N=CN3)CC1
REMARK SMILES IDX 8 1 7 2 6 3 5 4 2 5 3 6 38 7 4 8 37 9 1 10 9 11 21 12 10 13
REMARK SMILES IDX 13 14 11 15 12 16 36 17 22 18 35 19 34 20 14 22 15 23 16 24
REMARK SMILES IDX 20 25 17 26 19 27 18 28 23 29 24 31 30 32 25 33 31 34 29 35
REMARK SMILES IDX 27 36 32 37 33 38 28 39 26 40
REMARK H PARENT 36 21 23 30
ROOT
ATOM      1  O   UNL     1     -13.261  15.985 -10.809  1.00  0.00    -0.492 OA
ENDROOT
BRANCH   1   2
ATOM      2  C   UNL     1     -13.224  14.992 -11.806  1.00  0.00     0.245 C 
BRANCH   2   3
ATOM      3  C   UNL     1     -13.449  15.566 -13.215  1.00  0.00     0.126 C 
BRANCH   3   4
ATOM      4  N   UNL     1     -14.667  15.143 -13.898  1.00  0.00    -0.297 NA
ATOM      5  N   UNL     1     -16.446  13.017 -14.823  1.00  0.00    -0.304 NA
ATOM      6  C   UNL     1     -15.544  13.704 -15.730  1.00  0.00     0.099 C 
ATOM      7  C   UNL     1     -16.813  13.906 -13.736  1.00  0.00     0.099 C 
ATOM      8  C   UNL     1     -14.311  14.253 -14.999  1.00  0.00     0.100 C 
ATOM      9  C   UNL     1     -15.561  14.423 -13.003  1.00  0.00     0.100 C 
ATOM     10  C   UNL     1     -17.628  12.566 -15.537  1.00  0.00     0.105 C 
ENDBRANCH   3   4
ENDBRANCH   2   3
ENDBRANCH   1   2
BRANCH   1  11
ATOM     11  C   UNL     1     -12.296  15.892  -9.836  1.00  0.00     0.125 A 
ATOM     12  C   UNL     1     -11.505  14.809  -9.723  1.00  0.00     0.093 A 
ATOM     13  C   UNL     1     -12.067  16.869  -8.951  1.00  0.00     0.073 A 
ATOM     14  C   UNL     1     -10.526  14.653  -8.802  1.00  0.00     0.132 A 
ATOM     15  C   UNL     1     -11.113  16.757  -8.015  1.00  0.00     0.054 A 
ATOM     16  C   UNL     1     -10.316  15.657  -7.907  1.00  0.00     0.062 A 
ATOM     17  N   UNL     1     -11.008  17.756  -7.242  1.00  0.00    -0.346 N 
ATOM     18  C   UNL     1      -9.388  15.674  -6.906  1.00  0.00     0.236 C 
ATOM     19  C   UNL     1     -10.121  17.683  -6.352  1.00  0.00     0.193 C 
ATOM     20  N   UNL     1      -9.337  16.712  -6.165  1.00  0.00    -0.246 NA
ATOM     21  H   UNL     1     -11.589  18.546  -7.333  1.00  0.00     0.167 HD
BRANCH  14  22
ATOM     22  O   UNL     1      -9.788  13.484  -8.771  1.00  0.00    -0.490 OA
BRANCH  22  23
ATOM     23  C   UNL     1      -9.887  12.492  -9.764  1.00  0.00     0.178 C 
ATOM     24  C   UNL     1      -8.611  12.327 -10.591  1.00  0.00     0.073 C 
ATOM     25  C   UNL     1     -10.178  11.182  -9.013  1.00  0.00     0.073 C 
ATOM     26  C   UNL     1      -8.635  11.026 -11.386  1.00  0.00     0.164 C 
ATOM     27  C   UNL     1     -10.094   9.976  -9.942  1.00  0.00     0.164 C 
ATOM     28  O   UNL     1      -8.825   9.922 -10.536  1.00  0.00    -0.381 OA
ENDBRANCH  22  23
ENDBRANCH  14  22
BRANCH  18  29
ATOM     29  N   UNL     1      -8.486  14.852  -6.516  1.00  0.00    -0.355 N 
ATOM     30  H   UNL     1      -8.276  14.118  -7.243  1.00  0.00     0.163 HD
BRANCH  29  31
ATOM     31  C   UNL     1      -7.758  14.664  -5.479  1.00  0.00     0.102 A 
ATOM     32  C   UNL     1      -8.191  14.088  -4.335  1.00  0.00     0.190 A 
ATOM     33  C   UNL     1      -6.453  15.058  -5.484  1.00  0.00     0.068 A 
ATOM     34  O   UNL     1      -9.317  13.650  -4.089  1.00  0.00    -0.451 OA
ATOM     35  C   UNL     1      -7.400  13.920  -3.267  1.00  0.00     0.168 A 
ATOM     36  C   UNL     1      -5.665  14.888  -4.404  1.00  0.00     0.027 A 
ATOM     37  C   UNL     1      -9.306  13.073  -2.783  1.00  0.00     0.468 C 
ATOM     38  O   UNL     1      -7.990  13.377  -2.335  1.00  0.00    -0.454 OA
ATOM     39  C   UNL     1      -6.124  14.316  -3.283  1.00  0.00     0.052 A 
ATOM     40  Cl  UNL     1      -5.674  15.826  -6.838  1.00  0.00    -0.082 Cl
ENDBRANCH  29  31
ENDBRANCH  18  29
ENDBRANCH   1  11
TORSDOF 8
ENDMDL
MODEL 8
REMARK VINA RESULT:    -8.483      2.859      4.750
REMARK INTER + INTRA:         -14.163
REMARK INTER:                 -12.809
REMARK INTRA:                  -1.355
REMARK UNBOUND:                -1.713
REMARK SMILES CN1CCN(CCOc2cc3c(c(OC4CCOCC4)c2)C(Nc2c(Cl)ccc4c2OCO4)N=CN3)CC1
REMARK SMILES IDX 8 1 7 2 6 3 5 4 2 5 3 6 38 7 4 8 37 9 1 10 9 11 21 12 10 13
REMARK SMILES IDX 13 14 11 15 12 16 36 17 22 18 35 19 34 20 14 22 15 23 16 24
REMARK SMILES IDX 20 25 17 26 19 27 18 28 23 29 24 31 30 32 25 33 31 34 29 35
REMARK SMILES IDX 27 36 32 37 33 38 28 39 26 40
REMARK H PARENT 36 21 23 30
ROOT
ATOM      1  O   UNL     1      -9.605  11.067  -8.367  1.00  0.00    -0.492 OA
ENDROOT
BRANCH   1   2
ATOM      2  C   UNL     1      -8.552  11.997  -8.460  1.00  0.00     0.245 C 
BRANCH   2   3
ATOM      3  C   UNL     1      -8.230  12.656  -7.109  1.00  0.00     0.126 C 
BRANCH   3   4
ATOM      4  N   UNL     1      -7.996  14.096  -7.132  1.00  0.00    -0.297 NA
ATOM      5  N   UNL     1      -8.065  16.697  -5.799  1.00  0.00    -0.304 NA
ATOM      6  C   UNL     1      -9.073  16.311  -6.770  1.00  0.00     0.099 C 
ATOM      7  C   UNL     1      -6.816  16.022  -6.101  1.00  0.00     0.099 C 
ATOM      8  C   UNL     1      -9.248  14.787  -6.835  1.00  0.00     0.100 C 
ATOM      9  C   UNL     1      -7.011  14.494  -6.137  1.00  0.00     0.100 C 
ATOM     10  C   UNL     1      -7.884  18.138  -5.809  1.00  0.00     0.105 C 
ENDBRANCH   3   4
ENDBRANCH   2   3
ENDBRANCH   1   2
BRANCH   1  11
ATOM     11  C   UNL     1     -10.693  11.313  -9.169  1.00  0.00     0.125 A 
ATOM     12  C   UNL     1     -10.863  12.494  -9.792  1.00  0.00     0.093 A 
ATOM     13  C   UNL     1     -11.644  10.399  -9.395  1.00  0.00     0.073 A 
ATOM     14  C   UNL     1     -11.898  12.802 -10.606  1.00  0.00     0.132 A 
ATOM     15  C   UNL     1     -12.693  10.661 -10.189  1.00  0.00     0.054 A 
ATOM     16  C   UNL     1     -12.858  11.859 -10.817  1.00  0.00     0.062 A 
ATOM     17  N   UNL     1     -13.517   9.706 -10.312  1.00  0.00    -0.346 N 
ATOM     18  C   UNL     1     -13.972  11.992 -11.592  1.00  0.00     0.236 C 
ATOM     19  C   UNL     1     -14.513   9.920 -11.051  1.00  0.00     0.193 C 
ATOM     20  N   UNL     1     -14.760  10.990 -11.672  1.00  0.00    -0.246 NA
ATOM     21  H   UNL     1     -13.385   8.844  -9.855  1.00  0.00     0.167 HD
BRANCH  14  22
ATOM     22  O   UNL     1     -11.974  14.058 -11.179  1.00  0.00    -0.490 OA
BRANCH  22  23
ATOM     23  C   UNL     1     -11.948  15.245 -10.423  1.00  0.00     0.178 C 
ATOM     24  C   UNL     1     -12.979  16.280 -10.876  1.00  0.00     0.073 C 
ATOM     25  C   UNL     1     -12.255  14.823  -8.977  1.00  0.00     0.073 C 
ATOM     26  C   UNL     1     -13.162  17.371  -9.826  1.00  0.00     0.164 C 
ATOM     27  C   UNL     1     -12.477  16.034  -8.077  1.00  0.00     0.164 C 
ATOM     28  O   UNL     1     -13.523  16.816  -8.585  1.00  0.00    -0.381 OA
ENDBRANCH  22  23
ENDBRANCH  14  22
BRANCH  18  29
ATOM     29  N   UNL     1     -14.443  12.937 -12.319  1.00  0.00    -0.355 N 
ATOM     30  H   UNL     1     -14.562  13.833 -11.777  1.00  0.00     0.163 HD
BRANCH  29  31
ATOM     31  C   UNL     1     -14.815  13.104 -13.533  1.00  0.00     0.102 A 
ATOM     32  C   UNL     1     -16.097  13.292 -13.921  1.00  0.00     0.190 A 
ATOM     33  C   UNL     1     -13.890  13.099 -14.535  1.00  0.00     0.068 A 
ATOM     34  O   UNL     1     -17.102  13.339 -13.209  1.00  0.00    -0.451 OA
ATOM     35  C   UNL     1     -16.446  13.452 -15.204  1.00  0.00     0.168 A 
ATOM     36  C   UNL     1     -14.251  13.259 -15.823  1.00  0.00     0.027 A 
ATOM     37  C   UNL     1     -18.232  13.617 -14.035  1.00  0.00     0.468 C 
ATOM     38  O   UNL     1     -17.659  13.607 -15.337  1.00  0.00    -0.454 OA
ATOM     39  C   UNL     1     -15.531  13.439 -16.177  1.00  0.00     0.052 A 
ATOM     40  Cl  UNL     1     -12.183  12.872 -14.281  1.00  0.00    -0.082 Cl
ENDBRANCH  29  31
ENDBRANCH  18  29
ENDBRANCH   1  11
TORSDOF 8
ENDMDL
MODEL 9
REMARK VINA RESULT:    -8.386      2.666      9.342
REMARK INTER + INTRA:         -14.020
REMARK INTER:                 -12.359
REMARK INTRA:                  -1.661
REMARK UNBOUND:                -1.713
REMARK SMILES CN1CCN(CCOc2cc3c(c(OC4CCOCC4)c2)C(Nc2c(Cl)ccc4c2OCO4)N=CN3)CC1
REMARK SMILES IDX 8 1 7 2 6 3 5 4 2 5 3 6 38 7 4 8 37 9 1 10 9 11 21 12 10 13
REMARK SMILES IDX 13 14 11 15 12 16 36 17 22 18 35 19 34 20 14 22 15 23 16 24
REMARK SMILES IDX 20 25 17 26 19 27 18 28 23 29 24 31 30 32 25 33 31 34 29 35
REMARK SMILES IDX 27 36 32 37 33 38 28 39 26 40
REMARK H PARENT 36 21 23 30
ROOT
ATOM      1  O   UNL     1     -13.273  15.863 -10.671  1.00  0.00    -0.492 OA
ENDROOT
BRANCH   1   2
ATOM      2  C   UNL     1     -13.265  14.934 -11.729  1.00  0.00     0.245 C 
BRANCH   2   3
ATOM      3  C   UNL     1     -13.483  15.602 -13.097  1.00  0.00     0.126 C 
BRANCH   3   4
ATOM      4  N   UNL     1     -14.662  15.176 -13.844  1.00  0.00    -0.297 NA
ATOM      5  N   UNL     1     -16.273  13.051 -15.042  1.00  0.00    -0.304 NA
ATOM      6  C   UNL     1     -15.420  13.908 -15.847  1.00  0.00     0.099 C 
ATOM      7  C   UNL     1     -16.710  13.774 -13.861  1.00  0.00     0.099 C 
ATOM      8  C   UNL     1     -14.234  14.453 -15.038  1.00  0.00     0.100 C 
ATOM      9  C   UNL     1     -15.504  14.290 -13.054  1.00  0.00     0.100 C 
ATOM     10  C   UNL     1     -17.414  12.604 -15.821  1.00  0.00     0.105 C 
ENDBRANCH   3   4
ENDBRANCH   2   3
ENDBRANCH   1   2
BRANCH   1  11
ATOM     11  C   UNL     1     -12.228  15.770  -9.785  1.00  0.00     0.125 A 
ATOM     12  C   UNL     1     -11.319  14.781  -9.862  1.00  0.00     0.093 A 
ATOM     13  C   UNL     1     -12.035  16.656  -8.801  1.00  0.00     0.073 A 
ATOM     14  C   UNL     1     -10.257  14.633  -9.036  1.00  0.00     0.132 A 
ATOM     15  C   UNL     1     -11.002  16.547  -7.953  1.00  0.00     0.054 A 
ATOM     16  C   UNL     1     -10.085  15.543  -8.038  1.00  0.00     0.062 A 
ATOM     17  N   UNL     1     -10.942  17.453  -7.069  1.00  0.00    -0.346 N 
ATOM     18  C   UNL     1      -9.086  15.551  -7.108  1.00  0.00     0.236 C 
ATOM     19  C   UNL     1      -9.984  17.380  -6.257  1.00  0.00     0.193 C 
ATOM     20  N   UNL     1      -9.087  16.493  -6.247  1.00  0.00    -0.246 NA
ATOM     21  H   UNL     1     -11.610  18.176  -7.020  1.00  0.00     0.167 HD
BRANCH  14  22
ATOM     22  O   UNL     1      -9.398  13.563  -9.203  1.00  0.00    -0.490 OA
BRANCH  22  23
ATOM     23  C   UNL     1      -9.843  12.268  -9.525  1.00  0.00     0.178 C 
ATOM     24  C   UNL     1      -8.849  11.475 -10.374  1.00  0.00     0.073 C 
ATOM     25  C   UNL     1     -10.044  11.553  -8.179  1.00  0.00     0.073 C 
ATOM     26  C   UNL     1      -9.199   9.991 -10.389  1.00  0.00     0.164 C 
ATOM     27  C   UNL     1     -10.316  10.065  -8.373  1.00  0.00     0.164 C 
ATOM     28  O   UNL     1      -9.258   9.477  -9.080  1.00  0.00    -0.381 OA
ENDBRANCH  22  23
ENDBRANCH  14  22
BRANCH  18  29
ATOM     29  N   UNL     1      -8.072  14.799  -6.885  1.00  0.00    -0.355 N 
ATOM     30  H   UNL     1      -7.879  14.145  -7.689  1.00  0.00     0.163 HD
BRANCH  29  31
ATOM     31  C   UNL     1      -7.216  14.613  -5.952  1.00  0.00     0.102 A 
ATOM     32  C   UNL     1      -5.986  15.175  -5.919  1.00  0.00     0.190 A 
ATOM     33  C   UNL     1      -7.521  13.799  -4.901  1.00  0.00     0.068 A 
ATOM     34  O   UNL     1      -5.484  15.943  -6.743  1.00  0.00    -0.451 OA
ATOM     35  C   UNL     1      -5.114  14.946  -4.929  1.00  0.00     0.168 A 
ATOM     36  C   UNL     1      -6.636  13.572  -3.911  1.00  0.00     0.027 A 
ATOM     37  C   UNL     1      -4.196  16.336  -6.273  1.00  0.00     0.468 C 
ATOM     38  O   UNL     1      -4.058  15.555  -5.093  1.00  0.00    -0.454 OA
ATOM     39  C   UNL     1      -5.423  14.142  -3.908  1.00  0.00     0.052 A 
ATOM     40  Cl  UNL     1      -9.037  12.962  -4.727  1.00  0.00    -0.082 Cl
ENDBRANCH  29  31
ENDBRANCH  18  29
ENDBRANCH   1  11
TORSDOF 8
ENDMDL
MODEL 10
REMARK VINA RESULT:    -8.243      2.530      3.238
REMARK INTER + INTRA:         -13.810
REMARK INTER:                 -12.281
REMARK INTRA:                  -1.529
REMARK UNBOUND:                -1.713
REMARK SMILES CN1CCN(CCOc2cc3c(c(OC4CCOCC4)c2)C(Nc2c(Cl)ccc4c2OCO4)N=CN3)CC1
REMARK SMILES IDX 8 1 7 2 6 3 5 4 2 5 3 6 38 7 4 8 37 9 1 10 9 11 21 12 10 13
REMARK SMILES IDX 13 14 11 15 12 16 36 17 22 18 35 19 34 20 14 22 15 23 16 24
REMARK SMILES IDX 20 25 17 26 19 27 18 28 23 29 24 31 30 32 25 33 31 34 29 35
REMARK SMILES IDX 27 36 32 37 33 38 28 39 26 40
REMARK H PARENT 36 21 23 30
ROOT
ATOM      1  O   UNL     1      -9.755  13.178  -6.432  1.00  0.00    -0.492 OA
ENDROOT
BRANCH   1   2
ATOM      2  C   UNL     1      -8.943  14.116  -5.767  1.00  0.00     0.245 C 
BRANCH   2   3
ATOM      3  C   UNL     1      -7.717  14.525  -6.600  1.00  0.00     0.126 C 
BRANCH   3   4
ATOM      4  N   UNL     1      -7.372  15.942  -6.589  1.00  0.00    -0.297 NA
ATOM      5  N   UNL     1      -6.847  18.411  -5.115  1.00  0.00    -0.304 NA
ATOM      6  C   UNL     1      -8.111  18.182  -5.792  1.00  0.00     0.099 C 
ATOM      7  C   UNL     1      -5.791  17.686  -5.798  1.00  0.00     0.099 C 
ATOM      8  C   UNL     1      -8.430  16.684  -5.910  1.00  0.00     0.100 C 
ATOM      9  C   UNL     1      -6.122  16.183  -5.882  1.00  0.00     0.100 C 
ATOM     10  C   UNL     1      -6.550  19.833  -5.077  1.00  0.00     0.105 C 
ENDBRANCH   3   4
ENDBRANCH   2   3
ENDBRANCH   1   2
BRANCH   1  11
ATOM     11  C   UNL     1     -10.379  13.627  -7.570  1.00  0.00     0.125 A 
ATOM     12  C   UNL     1     -10.258  12.984  -8.747  1.00  0.00     0.093 A 
ATOM     13  C   UNL     1     -11.155  14.717  -7.586  1.00  0.00     0.073 A 
ATOM     14  C   UNL     1     -10.853  13.357  -9.903  1.00  0.00     0.132 A 
ATOM     15  C   UNL     1     -11.760  15.130  -8.709  1.00  0.00     0.054 A 
ATOM     16  C   UNL     1     -11.633  14.474  -9.897  1.00  0.00     0.062 A 
ATOM     17  N   UNL     1     -12.462  16.177  -8.580  1.00  0.00    -0.346 N 
ATOM     18  C   UNL     1     -12.299  15.006 -10.961  1.00  0.00     0.236 C 
ATOM     19  C   UNL     1     -13.043  16.592  -9.616  1.00  0.00     0.193 C 
ATOM     20  N   UNL     1     -12.988  16.062 -10.760  1.00  0.00    -0.246 NA
ATOM     21  H   UNL     1     -12.548  16.641  -7.715  1.00  0.00     0.167 HD
BRANCH  14  22
ATOM     22  O   UNL     1     -10.639  12.625 -11.056  1.00  0.00    -0.490 OA
BRANCH  22  23
ATOM     23  C   UNL     1     -10.470  11.228 -11.054  1.00  0.00     0.178 C 
ATOM     24  C   UNL     1     -11.352  10.508 -10.033  1.00  0.00     0.073 C 
ATOM     25  C   UNL     1     -10.849  10.763 -12.470  1.00  0.00     0.073 C 
ATOM     26  C   UNL     1     -11.406   9.010 -10.312  1.00  0.00     0.164 C 
ATOM     27  C   UNL     1     -10.924   9.242 -12.555  1.00  0.00     0.164 C 
ATOM     28  O   UNL     1     -11.854   8.761 -11.622  1.00  0.00    -0.381 OA
ENDBRANCH  22  23
ENDBRANCH  14  22
BRANCH  18  29
ATOM     29  N   UNL     1     -12.421  14.672 -12.193  1.00  0.00    -0.355 N 
ATOM     30  H   UNL     1     -11.629  15.038 -12.783  1.00  0.00     0.163 HD
BRANCH  29  31
ATOM     31  C   UNL     1     -13.242  14.010 -12.919  1.00  0.00     0.102 A 
ATOM     32  C   UNL     1     -13.866  12.876 -12.528  1.00  0.00     0.190 A 
ATOM     33  C   UNL     1     -13.535  14.441 -14.179  1.00  0.00     0.068 A 
ATOM     34  O   UNL     1     -13.770  12.295 -11.445  1.00  0.00    -0.451 OA
ATOM     35  C   UNL     1     -14.711  12.206 -13.323  1.00  0.00     0.168 A 
ATOM     36  C   UNL     1     -14.384  13.759 -14.973  1.00  0.00     0.027 A 
ATOM     37  C   UNL     1     -14.654  11.176 -11.447  1.00  0.00     0.468 C 
ATOM     38  O   UNL     1     -15.167  11.205 -12.774  1.00  0.00    -0.454 OA
ATOM     39  C   UNL     1     -14.985  12.635 -14.558  1.00  0.00     0.052 A 
ATOM     40  Cl  UNL     1     -12.852  15.869 -14.902  1.00  0.00    -0.082 Cl
ENDBRANCH  29  31
ENDBRANCH  18  29
ENDBRANCH   1  11
TORSDOF 8
ENDMDL
