MODEL 1
REMARK VINA RESULT:    -8.854      0.000      0.000
REMARK INTER + INTRA:         -14.427
REMARK INTER:                 -13.253
REMARK INTRA:                  -1.174
REMARK UNBOUND:                -1.174
REMARK SMILES C[C@H]1N[C@@H](N[C@@H](O)N2CCC[C@H]2[C@@H](N)O)S[C@@H]1[C@H]1CCN[C@H](C(C)(C)C(F)(F)F)C1
REMARK SMILES IDX 5 1 4 3 2 4 17 5 3 6 16 7 1 8 18 10 19 11 30 12 20 13 22 14
REMARK SMILES IDX 21 15 23 17 24 18 25 19 26 20 27 21 28 22 29 23 6 24 7 25
REMARK SMILES IDX 8 27 12 28 9 29 11 30 10 31 13 32 15 33 14 35
REMARK H PARENT 5 2 3 9 21 16 7 26 15 34 14 36 14 37
ROOT
ATOM      1  N   UNL     1      -0.049 -10.163  13.745  1.00  0.00    -0.255 NA
ATOM      2  H   UNL     1       0.093 -11.017  13.187  1.00  0.00     0.129 HD
ENDROOT
BRANCH   1   3
ATOM      3  C   UNL     1      -1.017 -10.484  14.678  1.00  0.00     0.185 C 
ATOM      4  C   UNL     1      -2.914 -11.359  15.406  1.00  0.00     0.066 C 
ATOM      5  C   UNL     1      -2.445 -10.877  16.624  1.00  0.00     0.069 C 
ATOM      6  N   UNL     1      -2.094 -11.135  14.319  1.00  0.00    -0.290 NA
ATOM      7  S   UNL     1      -0.914 -10.079  16.354  1.00  0.00    -0.122 SA
ATOM      8  C   UNL     1      -4.193 -12.100  15.191  1.00  0.00     0.025 C 
ATOM      9  H   UNL     1      -1.821 -12.040  13.910  1.00  0.00     0.125 HD
BRANCH   5  10
ATOM     10  C   UNL     1      -2.961 -10.882  18.011  1.00  0.00     0.006 C 
ATOM     11  C   UNL     1      -4.112 -11.583  18.353  1.00  0.00     0.020 C 
ATOM     12  C   UNL     1      -2.272 -10.198  19.007  1.00  0.00     0.024 C 
ATOM     13  C   UNL     1      -4.552 -11.533  19.657  1.00  0.00     0.081 C 
ATOM     14  C   UNL     1      -2.788 -10.222  20.311  1.00  0.00     0.068 C 
ATOM     15  N   UNL     1      -3.921 -10.862  20.631  1.00  0.00    -0.313 NA
ATOM     16  H   UNL     1      -4.579 -10.160  20.998  1.00  0.00     0.122 HD
BRANCH  14  17
ATOM     17  C   UNL     1      -2.039  -9.540  21.482  1.00  0.00     0.076 C 
ATOM     18  C   UNL     1      -1.441  -8.192  21.049  1.00  0.00     0.022 C 
ATOM     19  C   UNL     1      -2.994  -9.325  22.669  1.00  0.00     0.022 C 
BRANCH  17  20
ATOM     20  C   UNL     1      -0.805 -10.482  21.984  1.00  0.00     0.395 C 
ATOM     21  F   UNL     1      -0.931 -11.716  21.498  1.00  0.00    -0.170 F 
ATOM     22  F   UNL     1       0.382 -10.031  21.597  1.00  0.00    -0.170 F 
ATOM     23  F   UNL     1      -0.759 -10.576  23.308  1.00  0.00    -0.170 F 
ENDBRANCH  17  20
ENDBRANCH  14  17
ENDBRANCH   5  10
ENDBRANCH   1   3
BRANCH   1  24
ATOM     24  C   UNL     1      -0.158  -9.118  12.816  1.00  0.00     0.261 C 
BRANCH  24  25
ATOM     25  O   UNL     1      -1.209  -8.879  12.239  1.00  0.00    -0.365 OA
ATOM     26  H   UNL     1      -1.594  -8.036  12.591  1.00  0.00     0.214 HD
ENDBRANCH  24  25
BRANCH  24  27
ATOM     27  N   UNL     1       0.973  -8.362  12.574  1.00  0.00    -0.259 NA
ATOM     28  C   UNL     1       1.369  -7.307  13.522  1.00  0.00     0.104 C 
ATOM     29  C   UNL     1       1.901  -8.475  11.439  1.00  0.00     0.089 C 
ATOM     30  C   UNL     1       2.701  -6.790  12.957  1.00  0.00     0.025 C 
ATOM     31  C   UNL     1       2.695  -7.188  11.500  1.00  0.00     0.017 C 
BRANCH  28  32
ATOM     32  C   UNL     1       0.330  -6.193  13.666  1.00  0.00     0.197 C 
BRANCH  32  33
ATOM     33  O   UNL     1      -0.364  -5.861  12.700  1.00  0.00    -0.377 OA
ATOM     34  H   UNL     1      -0.838  -6.655  12.347  1.00  0.00     0.212 HD
ENDBRANCH  32  33
BRANCH  32  35
ATOM     35  N   UNL     1       0.278  -5.576  14.836  1.00  0.00    -0.305 NA
ATOM     36  H   UNL     1      -0.248  -6.155  15.505  1.00  0.00     0.121 HD
ATOM     37  H   UNL     1       1.235  -5.428  15.188  1.00  0.00     0.121 HD
ENDBRANCH  32  35
ENDBRANCH  28  32
ENDBRANCH  24  27
ENDBRANCH   1  24
TORSDOF 10
ENDMDL
MODEL 2
REMARK VINA RESULT:    -8.547      2.287      3.318
REMARK INTER + INTRA:         -13.968
REMARK INTER:                 -12.909
REMARK INTRA:                  -1.059
REMARK UNBOUND:                -1.174
REMARK SMILES C[C@H]1N[C@@H](N[C@@H](O)N2CCC[C@H]2[C@@H](N)O)S[C@@H]1[C@H]1CCN[C@H](C(C)(C)C(F)(F)F)C1
REMARK SMILES IDX 5 1 4 3 2 4 17 5 3 6 16 7 1 8 18 10 19 11 30 12 20 13 22 14
REMARK SMILES IDX 21 15 23 17 24 18 25 19 26 20 27 21 28 22 29 23 6 24 7 25
REMARK SMILES IDX 8 27 12 28 9 29 11 30 10 31 13 32 15 33 14 35
REMARK H PARENT 5 2 3 9 21 16 7 26 15 34 14 36 14 37
ROOT
ATOM      1  N   UNL     1       0.658  -8.075  12.211  1.00  0.00    -0.255 NA
ATOM      2  H   UNL     1       1.591  -7.696  12.427  1.00  0.00     0.129 HD
ENDROOT
BRANCH   1   3
ATOM      3  C   UNL     1       0.121  -8.457  13.426  1.00  0.00     0.185 C 
ATOM      4  C   UNL     1      -0.839  -9.827  14.874  1.00  0.00     0.066 C 
ATOM      5  C   UNL     1      -0.690  -8.730  15.717  1.00  0.00     0.069 C 
ATOM      6  N   UNL     1      -0.370  -9.659  13.587  1.00  0.00    -0.290 NA
ATOM      7  S   UNL     1       0.045  -7.428  14.812  1.00  0.00    -0.122 SA
ATOM      8  C   UNL     1      -1.430 -11.147  15.249  1.00  0.00     0.025 C 
ATOM      9  H   UNL     1       0.369 -10.353  13.403  1.00  0.00     0.125 HD
BRANCH   5  10
ATOM     10  C   UNL     1      -1.031  -8.453  17.130  1.00  0.00     0.006 C 
ATOM     11  C   UNL     1      -0.747  -7.224  17.716  1.00  0.00     0.020 C 
ATOM     12  C   UNL     1      -1.673  -9.425  17.890  1.00  0.00     0.024 C 
ATOM     13  C   UNL     1      -1.072  -7.034  19.041  1.00  0.00     0.081 C 
ATOM     14  C   UNL     1      -1.981  -9.131  19.226  1.00  0.00     0.068 C 
ATOM     15  N   UNL     1      -1.670  -7.962  19.802  1.00  0.00    -0.313 NA
ATOM     16  H   UNL     1      -1.040  -8.165  20.591  1.00  0.00     0.122 HD
BRANCH  14  17
ATOM     17  C   UNL     1      -2.755 -10.139  20.110  1.00  0.00     0.076 C 
ATOM     18  C   UNL     1      -3.754  -9.419  21.031  1.00  0.00     0.022 C 
ATOM     19  C   UNL     1      -3.503 -11.154  19.228  1.00  0.00     0.022 C 
BRANCH  17  20
ATOM     20  C   UNL     1      -1.717 -10.961  21.064  1.00  0.00     0.395 C 
ATOM     21  F   UNL     1      -2.221 -11.103  22.289  1.00  0.00    -0.170 F 
ATOM     22  F   UNL     1      -1.449 -12.179  20.610  1.00  0.00    -0.170 F 
ATOM     23  F   UNL     1      -0.550 -10.337  21.181  1.00  0.00    -0.170 F 
ENDBRANCH  17  20
ENDBRANCH  14  17
ENDBRANCH   5  10
ENDBRANCH   1   3
BRANCH   1  24
ATOM     24  C   UNL     1       0.843  -8.938  11.120  1.00  0.00     0.261 C 
BRANCH  24  25
ATOM     25  O   UNL     1      -0.100  -9.362  10.470  1.00  0.00    -0.365 OA
ATOM     26  H   UNL     1      -0.487  -8.627   9.931  1.00  0.00     0.214 HD
ENDBRANCH  24  25
BRANCH  24  27
ATOM     27  N   UNL     1       2.141  -9.293  10.805  1.00  0.00    -0.259 NA
ATOM     28  C   UNL     1       3.211  -8.283  10.849  1.00  0.00     0.104 C 
ATOM     29  C   UNL     1       2.638 -10.622  10.416  1.00  0.00     0.089 C 
ATOM     30  C   UNL     1       4.485  -9.086  10.543  1.00  0.00     0.025 C 
ATOM     31  C   UNL     1       4.006 -10.334   9.838  1.00  0.00     0.017 C 
BRANCH  28  32
ATOM     32  C   UNL     1       3.004  -7.129   9.865  1.00  0.00     0.197 C 
BRANCH  32  33
ATOM     33  O   UNL     1       3.275  -7.275   8.670  1.00  0.00    -0.377 OA
ATOM     34  H   UNL     1       3.672  -8.171   8.529  1.00  0.00     0.212 HD
ENDBRANCH  32  33
BRANCH  32  35
ATOM     35  N   UNL     1       2.600  -5.978  10.376  1.00  0.00    -0.305 NA
ATOM     36  H   UNL     1       2.699  -5.235   9.670  1.00  0.00     0.121 HD
ATOM     37  H   UNL     1       1.612  -6.054  10.658  1.00  0.00     0.121 HD
ENDBRANCH  32  35
ENDBRANCH  28  32
ENDBRANCH  24  27
ENDBRANCH   1  24
TORSDOF 10
ENDMDL
MODEL 3
REMARK VINA RESULT:    -8.490      1.725      2.872
REMARK INTER + INTRA:         -13.883
REMARK INTER:                 -13.075
REMARK INTRA:                  -0.808
REMARK UNBOUND:                -1.174
REMARK SMILES C[C@H]1N[C@@H](N[C@@H](O)N2CCC[C@H]2[C@@H](N)O)S[C@@H]1[C@H]1CCN[C@H](C(C)(C)C(F)(F)F)C1
REMARK SMILES IDX 5 1 4 3 2 4 17 5 3 6 16 7 1 8 18 10 19 11 30 12 20 13 22 14
REMARK SMILES IDX 21 15 23 17 24 18 25 19 26 20 27 21 28 22 29 23 6 24 7 25
REMARK SMILES IDX 8 27 12 28 9 29 11 30 10 31 13 32 15 33 14 35
REMARK H PARENT 5 2 3 9 21 16 7 26 15 34 14 36 14 37
ROOT
ATOM      1  N   UNL     1       0.299  -8.641  13.267  1.00  0.00    -0.255 NA
ATOM      2  H   UNL     1      -0.278  -9.068  12.527  1.00  0.00     0.129 HD
ENDROOT
BRANCH   1   3
ATOM      3  C   UNL     1      -0.386  -8.863  14.446  1.00  0.00     0.185 C 
ATOM      4  C   UNL     1      -1.103  -8.402  16.488  1.00  0.00     0.066 C 
ATOM      5  C   UNL     1      -1.753  -9.622  16.327  1.00  0.00     0.069 C 
ATOM      6  N   UNL     1      -0.341  -7.985  15.415  1.00  0.00    -0.290 NA
ATOM      7  S   UNL     1      -1.342 -10.269  14.757  1.00  0.00    -0.122 SA
ATOM      8  C   UNL     1      -1.180  -7.520  17.692  1.00  0.00     0.025 C 
ATOM      9  H   UNL     1      -0.705  -7.085  15.073  1.00  0.00     0.125 HD
BRANCH   5  10
ATOM     10  C   UNL     1      -2.647 -10.441  17.175  1.00  0.00     0.006 C 
ATOM     11  C   UNL     1      -3.417 -11.467  16.636  1.00  0.00     0.020 C 
ATOM     12  C   UNL     1      -2.707 -10.208  18.545  1.00  0.00     0.024 C 
ATOM     13  C   UNL     1      -4.244 -12.182  17.474  1.00  0.00     0.081 C 
ATOM     14  C   UNL     1      -3.565 -11.002  19.319  1.00  0.00     0.068 C 
ATOM     15  N   UNL     1      -4.338 -11.962  18.793  1.00  0.00    -0.313 NA
ATOM     16  H   UNL     1      -5.317 -11.715  18.995  1.00  0.00     0.122 HD
BRANCH  14  17
ATOM     17  C   UNL     1      -3.632 -10.843  20.858  1.00  0.00     0.076 C 
ATOM     18  C   UNL     1      -4.175  -9.459  21.251  1.00  0.00     0.022 C 
ATOM     19  C   UNL     1      -4.522 -11.941  21.467  1.00  0.00     0.022 C 
BRANCH  17  20
ATOM     20  C   UNL     1      -2.139 -10.981  21.502  1.00  0.00     0.395 C 
ATOM     21  F   UNL     1      -1.464 -11.967  20.912  1.00  0.00    -0.170 F 
ATOM     22  F   UNL     1      -1.411  -9.878  21.368  1.00  0.00    -0.170 F 
ATOM     23  F   UNL     1      -2.182 -11.248  22.803  1.00  0.00    -0.170 F 
ENDBRANCH  17  20
ENDBRANCH  14  17
ENDBRANCH   5  10
ENDBRANCH   1   3
BRANCH   1  24
ATOM     24  C   UNL     1       0.656  -7.374  12.784  1.00  0.00     0.261 C 
BRANCH  24  25
ATOM     25  O   UNL     1      -0.011  -6.380  13.031  1.00  0.00    -0.365 OA
ATOM     26  H   UNL     1      -0.931  -6.653  13.276  1.00  0.00     0.214 HD
ENDBRANCH  24  25
BRANCH  24  27
ATOM     27  N   UNL     1       1.799  -7.287  12.012  1.00  0.00    -0.259 NA
ATOM     28  C   UNL     1       1.713  -7.440  10.550  1.00  0.00     0.104 C 
ATOM     29  C   UNL     1       3.174  -7.039  12.471  1.00  0.00     0.089 C 
ATOM     30  C   UNL     1       3.149  -7.178  10.070  1.00  0.00     0.025 C 
ATOM     31  C   UNL     1       4.022  -7.424  11.279  1.00  0.00     0.017 C 
BRANCH  28  32
ATOM     32  C   UNL     1       1.197  -8.811  10.108  1.00  0.00     0.197 C 
BRANCH  32  33
ATOM     33  O   UNL     1       0.024  -9.133  10.322  1.00  0.00    -0.377 OA
ATOM     34  H   UNL     1      -0.424  -8.419  10.841  1.00  0.00     0.212 HD
ENDBRANCH  32  33
BRANCH  32  35
ATOM     35  N   UNL     1       2.082  -9.632   9.567  1.00  0.00    -0.305 NA
ATOM     36  H   UNL     1       1.641 -10.547   9.394  1.00  0.00     0.121 HD
ATOM     37  H   UNL     1       2.415  -9.239   8.675  1.00  0.00     0.121 HD
ENDBRANCH  32  35
ENDBRANCH  28  32
ENDBRANCH  24  27
ENDBRANCH   1  24
TORSDOF 10
ENDMDL
MODEL 4
REMARK VINA RESULT:    -8.474      1.318      2.362
REMARK INTER + INTRA:         -13.858
REMARK INTER:                 -12.416
REMARK INTRA:                  -1.442
REMARK UNBOUND:                -1.174
REMARK SMILES C[C@H]1N[C@@H](N[C@@H](O)N2CCC[C@H]2[C@@H](N)O)S[C@@H]1[C@H]1CCN[C@H](C(C)(C)C(F)(F)F)C1
REMARK SMILES IDX 5 1 4 3 2 4 17 5 3 6 16 7 1 8 18 10 19 11 30 12 20 13 22 14
REMARK SMILES IDX 21 15 23 17 24 18 25 19 26 20 27 21 28 22 29 23 6 24 7 25
REMARK SMILES IDX 8 27 12 28 9 29 11 30 10 31 13 32 15 33 14 35
REMARK H PARENT 5 2 3 9 21 16 7 26 15 34 14 36 14 37
ROOT
ATOM      1  N   UNL     1       0.757  -6.833  14.550  1.00  0.00    -0.255 NA
ATOM      2  H   UNL     1       1.727  -7.090  14.784  1.00  0.00     0.129 HD
ENDROOT
BRANCH   1   3
ATOM      3  C   UNL     1      -0.036  -7.795  15.146  1.00  0.00     0.185 C 
ATOM      4  C   UNL     1      -1.162  -9.695  15.274  1.00  0.00     0.066 C 
ATOM      5  C   UNL     1      -1.402  -9.242  16.568  1.00  0.00     0.069 C 
ATOM      6  N   UNL     1      -0.384  -8.870  14.487  1.00  0.00    -0.290 NA
ATOM      7  S   UNL     1      -0.630  -7.687  16.765  1.00  0.00    -0.122 SA
ATOM      8  C   UNL     1      -1.649 -10.982  14.691  1.00  0.00     0.025 C 
ATOM      9  H   UNL     1       0.464  -9.379  14.199  1.00  0.00     0.125 HD
BRANCH   5  10
ATOM     10  C   UNL     1      -2.152  -9.769  17.729  1.00  0.00     0.006 C 
ATOM     11  C   UNL     1      -3.240 -10.619  17.564  1.00  0.00     0.020 C 
ATOM     12  C   UNL     1      -1.754  -9.434  19.019  1.00  0.00     0.024 C 
ATOM     13  C   UNL     1      -3.909 -11.060  18.684  1.00  0.00     0.081 C 
ATOM     14  C   UNL     1      -2.487  -9.949  20.098  1.00  0.00     0.068 C 
ATOM     15  N   UNL     1      -3.561 -10.734  19.937  1.00  0.00    -0.313 NA
ATOM     16  H   UNL     1      -4.364 -10.251  20.364  1.00  0.00     0.122 HD
BRANCH  14  17
ATOM     17  C   UNL     1      -2.061  -9.673  21.561  1.00  0.00     0.076 C 
ATOM     18  C   UNL     1      -1.593  -8.220  21.739  1.00  0.00     0.022 C 
ATOM     19  C   UNL     1      -3.231  -9.962  22.518  1.00  0.00     0.022 C 
BRANCH  17  20
ATOM     20  C   UNL     1      -0.813 -10.641  21.973  1.00  0.00     0.395 C 
ATOM     21  F   UNL     1      -0.865 -11.786  21.295  1.00  0.00    -0.170 F 
ATOM     22  F   UNL     1       0.371 -10.095  21.724  1.00  0.00    -0.170 F 
ATOM     23  F   UNL     1      -0.825 -10.941  23.267  1.00  0.00    -0.170 F 
ENDBRANCH  17  20
ENDBRANCH  14  17
ENDBRANCH   5  10
ENDBRANCH   1   3
BRANCH   1  24
ATOM     24  C   UNL     1       0.762  -6.548  13.177  1.00  0.00     0.261 C 
BRANCH  24  25
ATOM     25  O   UNL     1      -0.144  -5.921  12.648  1.00  0.00    -0.365 OA
ATOM     26  H   UNL     1      -0.179  -6.142  11.683  1.00  0.00     0.214 HD
ENDBRANCH  24  25
BRANCH  24  27
ATOM     27  N   UNL     1       1.835  -7.006  12.437  1.00  0.00    -0.259 NA
ATOM     28  C   UNL     1       1.605  -7.695  11.156  1.00  0.00     0.104 C 
ATOM     29  C   UNL     1       3.265  -6.885  12.762  1.00  0.00     0.089 C 
ATOM     30  C   UNL     1       3.022  -7.941  10.615  1.00  0.00     0.025 C 
ATOM     31  C   UNL     1       3.926  -7.870  11.823  1.00  0.00     0.017 C 
BRANCH  28  32
ATOM     32  C   UNL     1       0.806  -8.993  11.295  1.00  0.00     0.197 C 
BRANCH  32  33
ATOM     33  O   UNL     1       1.052  -9.779  12.214  1.00  0.00    -0.377 OA
ATOM     34  H   UNL     1       0.256  -9.868  12.794  1.00  0.00     0.212 HD
ENDBRANCH  32  33
BRANCH  32  35
ATOM     35  N   UNL     1      -0.087  -9.244  10.352  1.00  0.00    -0.305 NA
ATOM     36  H   UNL     1       0.340  -9.095   9.427  1.00  0.00     0.121 HD
ATOM     37  H   UNL     1      -0.404 -10.221  10.430  1.00  0.00     0.121 HD
ENDBRANCH  32  35
ENDBRANCH  28  32
ENDBRANCH  24  27
ENDBRANCH   1  24
TORSDOF 10
ENDMDL
MODEL 5
REMARK VINA RESULT:    -8.391      1.938      2.853
REMARK INTER + INTRA:         -13.734
REMARK INTER:                 -12.985
REMARK INTRA:                  -0.749
REMARK UNBOUND:                -1.174
REMARK SMILES C[C@H]1N[C@@H](N[C@@H](O)N2CCC[C@H]2[C@@H](N)O)S[C@@H]1[C@H]1CCN[C@H](C(C)(C)C(F)(F)F)C1
REMARK SMILES IDX 5 1 4 3 2 4 17 5 3 6 16 7 1 8 18 10 19 11 30 12 20 13 22 14
REMARK SMILES IDX 21 15 23 17 24 18 25 19 26 20 27 21 28 22 29 23 6 24 7 25
REMARK SMILES IDX 8 27 12 28 9 29 11 30 10 31 13 32 15 33 14 35
REMARK H PARENT 5 2 3 9 21 16 7 26 15 34 14 36 14 37
ROOT
ATOM      1  N   UNL     1      -0.369  -9.356  12.500  1.00  0.00    -0.255 NA
ATOM      2  H   UNL     1      -1.207  -9.055  11.983  1.00  0.00     0.129 HD
ENDROOT
BRANCH   1   3
ATOM      3  C   UNL     1      -0.764  -9.458  13.821  1.00  0.00     0.185 C 
ATOM      4  C   UNL     1      -0.804  -8.928  15.968  1.00  0.00     0.066 C 
ATOM      5  C   UNL     1      -1.750  -9.948  16.004  1.00  0.00     0.069 C 
ATOM      6  N   UNL     1      -0.263  -8.659  14.727  1.00  0.00    -0.290 NA
ATOM      7  S   UNL     1      -1.920 -10.606  14.395  1.00  0.00    -0.122 SA
ATOM      8  C   UNL     1      -0.357  -8.105  17.133  1.00  0.00     0.025 C 
ATOM      9  H   UNL     1      -0.472  -7.683  14.471  1.00  0.00     0.125 HD
BRANCH   5  10
ATOM     10  C   UNL     1      -2.570 -10.566  17.070  1.00  0.00     0.006 C 
ATOM     11  C   UNL     1      -3.478 -11.580  16.789  1.00  0.00     0.020 C 
ATOM     12  C   UNL     1      -2.417 -10.150  18.389  1.00  0.00     0.024 C 
ATOM     13  C   UNL     1      -4.226 -12.101  17.821  1.00  0.00     0.081 C 
ATOM     14  C   UNL     1      -3.210 -10.755  19.374  1.00  0.00     0.068 C 
ATOM     15  N   UNL     1      -4.116 -11.703  19.096  1.00  0.00    -0.313 NA
ATOM     16  H   UNL     1      -5.037 -11.345  19.388  1.00  0.00     0.122 HD
BRANCH  14  17
ATOM     17  C   UNL     1      -3.046 -10.390  20.870  1.00  0.00     0.076 C 
ATOM     18  C   UNL     1      -3.046  -8.867  21.074  1.00  0.00     0.022 C 
ATOM     19  C   UNL     1      -4.178 -11.023  21.698  1.00  0.00     0.022 C 
BRANCH  17  20
ATOM     20  C   UNL     1      -1.624 -10.958  21.433  1.00  0.00     0.395 C 
ATOM     21  F   UNL     1      -0.642 -10.093  21.181  1.00  0.00    -0.170 F 
ATOM     22  F   UNL     1      -1.631 -11.166  22.745  1.00  0.00    -0.170 F 
ATOM     23  F   UNL     1      -1.292 -12.115  20.871  1.00  0.00    -0.170 F 
ENDBRANCH  17  20
ENDBRANCH  14  17
ENDBRANCH   5  10
ENDBRANCH   1   3
BRANCH   1  24
ATOM     24  C   UNL     1       0.672  -8.532  12.046  1.00  0.00     0.261 C 
BRANCH  24  25
ATOM     25  O   UNL     1       0.702  -7.337  12.296  1.00  0.00    -0.365 OA
ATOM     26  H   UNL     1      -0.157  -7.064  12.708  1.00  0.00     0.214 HD
ENDBRANCH  24  25
BRANCH  24  27
ATOM     27  N   UNL     1       1.671  -9.126  11.299  1.00  0.00    -0.259 NA
ATOM     28  C   UNL     1       2.691  -8.293  10.640  1.00  0.00     0.104 C 
ATOM     29  C   UNL     1       1.880 -10.564  11.061  1.00  0.00     0.089 C 
ATOM     30  C   UNL     1       3.653  -9.318  10.017  1.00  0.00     0.025 C 
ATOM     31  C   UNL     1       2.852 -10.594   9.903  1.00  0.00     0.017 C 
BRANCH  28  32
ATOM     32  C   UNL     1       2.116  -7.332   9.598  1.00  0.00     0.197 C 
BRANCH  32  33
ATOM     33  O   UNL     1       2.688  -6.266   9.353  1.00  0.00    -0.377 OA
ATOM     34  H   UNL     1       2.158  -5.516   9.722  1.00  0.00     0.212 HD
ENDBRANCH  32  33
BRANCH  32  35
ATOM     35  N   UNL     1       0.962  -7.673   9.049  1.00  0.00    -0.305 NA
ATOM     36  H   UNL     1       0.987  -8.668   8.786  1.00  0.00     0.121 HD
ATOM     37  H   UNL     1       0.200  -7.516   9.724  1.00  0.00     0.121 HD
ENDBRANCH  32  35
ENDBRANCH  28  32
ENDBRANCH  24  27
ENDBRANCH   1  24
TORSDOF 10
ENDMDL
MODEL 6
REMARK VINA RESULT:    -8.045      1.595      2.203
REMARK INTER + INTRA:         -13.217
REMARK INTER:                 -11.625
REMARK INTRA:                  -1.592
REMARK UNBOUND:                -1.174
REMARK SMILES C[C@H]1N[C@@H](N[C@@H](O)N2CCC[C@H]2[C@@H](N)O)S[C@@H]1[C@H]1CCN[C@H](C(C)(C)C(F)(F)F)C1
REMARK SMILES IDX 5 1 4 3 2 4 17 5 3 6 16 7 1 8 18 10 19 11 30 12 20 13 22 14
REMARK SMILES IDX 21 15 23 17 24 18 25 19 26 20 27 21 28 22 29 23 6 24 7 25
REMARK SMILES IDX 8 27 12 28 9 29 11 30 10 31 13 32 15 33 14 35
REMARK H PARENT 5 2 3 9 21 16 7 26 15 34 14 36 14 37
ROOT
ATOM      1  N   UNL     1      -0.010  -9.968  14.006  1.00  0.00    -0.255 NA
ATOM      2  H   UNL     1      -0.258 -10.904  13.654  1.00  0.00     0.129 HD
ENDROOT
BRANCH   1   3
ATOM      3  C   UNL     1      -0.722  -9.813  15.180  1.00  0.00     0.185 C 
ATOM      4  C   UNL     1      -1.658  -8.700  16.848  1.00  0.00     0.066 C 
ATOM      5  C   UNL     1      -2.047  -9.980  17.229  1.00  0.00     0.069 C 
ATOM      6  N   UNL     1      -0.916  -8.622  15.686  1.00  0.00    -0.290 NA
ATOM      7  S   UNL     1      -1.407 -11.123  16.073  1.00  0.00    -0.122 SA
ATOM      8  C   UNL     1      -1.989  -7.432  17.566  1.00  0.00     0.025 C 
ATOM      9  H   UNL     1      -1.421  -8.042  15.001  1.00  0.00     0.125 HD
BRANCH   5  10
ATOM     10  C   UNL     1      -2.825 -10.535  18.359  1.00  0.00     0.006 C 
ATOM     11  C   UNL     1      -3.855 -11.446  18.151  1.00  0.00     0.020 C 
ATOM     12  C   UNL     1      -2.509 -10.166  19.663  1.00  0.00     0.024 C 
ATOM     13  C   UNL     1      -4.554 -11.912  19.243  1.00  0.00     0.081 C 
ATOM     14  C   UNL     1      -3.266 -10.710  20.711  1.00  0.00     0.068 C 
ATOM     15  N   UNL     1      -4.286 -11.555  20.507  1.00  0.00    -0.313 NA
ATOM     16  H   UNL     1      -5.134 -11.112  20.888  1.00  0.00     0.122 HD
BRANCH  14  17
ATOM     17  C   UNL     1      -2.928 -10.397  22.189  1.00  0.00     0.076 C 
ATOM     18  C   UNL     1      -3.780 -11.246  23.146  1.00  0.00     0.022 C 
ATOM     19  C   UNL     1      -1.435 -10.653  22.458  1.00  0.00     0.022 C 
BRANCH  17  20
ATOM     20  C   UNL     1      -3.244  -8.829  22.517  1.00  0.00     0.395 C 
ATOM     21  F   UNL     1      -3.523  -8.669  23.810  1.00  0.00    -0.170 F 
ATOM     22  F   UNL     1      -2.225  -8.025  22.236  1.00  0.00    -0.170 F 
ATOM     23  F   UNL     1      -4.283  -8.376  21.824  1.00  0.00    -0.170 F 
ENDBRANCH  17  20
ENDBRANCH  14  17
ENDBRANCH   5  10
ENDBRANCH   1   3
BRANCH   1  24
ATOM     24  C   UNL     1      -0.107  -9.110  12.901  1.00  0.00     0.261 C 
BRANCH  24  25
ATOM     25  O   UNL     1      -1.144  -8.996  12.264  1.00  0.00    -0.365 OA
ATOM     26  H   UNL     1      -1.611  -9.869  12.236  1.00  0.00     0.214 HD
ENDBRANCH  24  25
BRANCH  24  27
ATOM     27  N   UNL     1       1.021  -8.392  12.554  1.00  0.00    -0.259 NA
ATOM     28  C   UNL     1       1.467  -7.270  13.398  1.00  0.00     0.104 C 
ATOM     29  C   UNL     1       1.901  -8.608  11.394  1.00  0.00     0.089 C 
ATOM     30  C   UNL     1       2.781  -6.818  12.740  1.00  0.00     0.025 C 
ATOM     31  C   UNL     1       2.710  -7.331  11.321  1.00  0.00     0.017 C 
BRANCH  28  32
ATOM     32  C   UNL     1       0.448  -6.134  13.493  1.00  0.00     0.197 C 
BRANCH  32  33
ATOM     33  O   UNL     1      -0.037  -5.645  12.469  1.00  0.00    -0.377 OA
ATOM     34  H   UNL     1      -0.536  -4.823  12.701  1.00  0.00     0.212 HD
ENDBRANCH  32  33
BRANCH  32  35
ATOM     35  N   UNL     1       0.185  -5.673  14.706  1.00  0.00    -0.305 NA
ATOM     36  H   UNL     1       0.796  -6.140  15.390  1.00  0.00     0.121 HD
ATOM     37  H   UNL     1       0.353  -4.657  14.731  1.00  0.00     0.121 HD
ENDBRANCH  32  35
ENDBRANCH  28  32
ENDBRANCH  24  27
ENDBRANCH   1  24
TORSDOF 10
ENDMDL
MODEL 7
REMARK VINA RESULT:    -8.044      2.220      3.447
REMARK INTER + INTRA:         -13.215
REMARK INTER:                 -12.109
REMARK INTRA:                  -1.107
REMARK UNBOUND:                -1.174
REMARK SMILES C[C@H]1N[C@@H](N[C@@H](O)N2CCC[C@H]2[C@@H](N)O)S[C@@H]1[C@H]1CCN[C@H](C(C)(C)C(F)(F)F)C1
REMARK SMILES IDX 5 1 4 3 2 4 17 5 3 6 16 7 1 8 18 10 19 11 30 12 20 13 22 14
REMARK SMILES IDX 21 15 23 17 24 18 25 19 26 20 27 21 28 22 29 23 6 24 7 25
REMARK SMILES IDX 8 27 12 28 9 29 11 30 10 31 13 32 15 33 14 35
REMARK H PARENT 5 2 3 9 21 16 7 26 15 34 14 36 14 37
ROOT
ATOM      1  N   UNL     1       1.077  -7.460  14.136  1.00  0.00    -0.255 NA
ATOM      2  H   UNL     1       1.506  -8.337  13.811  1.00  0.00     0.129 HD
ENDROOT
BRANCH   1   3
ATOM      3  C   UNL     1       0.114  -7.835  15.053  1.00  0.00     0.185 C 
ATOM      4  C   UNL     1      -1.363  -7.538  16.674  1.00  0.00     0.066 C 
ATOM      5  C   UNL     1      -1.557  -8.902  16.485  1.00  0.00     0.069 C 
ATOM      6  N   UNL     1      -0.422  -6.949  15.853  1.00  0.00    -0.290 NA
ATOM      7  S   UNL     1      -0.466  -9.452  15.235  1.00  0.00    -0.122 SA
ATOM      8  C   UNL     1      -2.091  -6.676  17.654  1.00  0.00     0.025 C 
ATOM      9  H   UNL     1      -0.876  -6.216  15.291  1.00  0.00     0.125 HD
BRANCH   5  10
ATOM     10  C   UNL     1      -2.429  -9.923  17.108  1.00  0.00     0.006 C 
ATOM     11  C   UNL     1      -3.137 -10.839  16.337  1.00  0.00     0.020 C 
ATOM     12  C   UNL     1      -2.529  -9.994  18.494  1.00  0.00     0.024 C 
ATOM     13  C   UNL     1      -3.947 -11.752  16.976  1.00  0.00     0.081 C 
ATOM     14  C   UNL     1      -3.364 -10.973  19.052  1.00  0.00     0.068 C 
ATOM     15  N   UNL     1      -4.079 -11.827  18.308  1.00  0.00    -0.313 NA
ATOM     16  H   UNL     1      -5.073 -11.671  18.528  1.00  0.00     0.122 HD
BRANCH  14  17
ATOM     17  C   UNL     1      -3.472 -11.154  20.586  1.00  0.00     0.076 C 
ATOM     18  C   UNL     1      -4.442 -12.290  20.945  1.00  0.00     0.022 C 
ATOM     19  C   UNL     1      -2.085 -11.449  21.183  1.00  0.00     0.022 C 
BRANCH  17  20
ATOM     20  C   UNL     1      -4.043  -9.789  21.274  1.00  0.00     0.395 C 
ATOM     21  F   UNL     1      -3.276  -8.748  20.954  1.00  0.00    -0.170 F 
ATOM     22  F   UNL     1      -5.280  -9.493  20.890  1.00  0.00    -0.170 F 
ATOM     23  F   UNL     1      -4.071  -9.875  22.599  1.00  0.00    -0.170 F 
ENDBRANCH  17  20
ENDBRANCH  14  17
ENDBRANCH   5  10
ENDBRANCH   1   3
BRANCH   1  24
ATOM     24  C   UNL     1       0.819  -6.712  12.977  1.00  0.00     0.261 C 
BRANCH  24  25
ATOM     25  O   UNL     1      -0.202  -6.053  12.851  1.00  0.00    -0.365 OA
ATOM     26  H   UNL     1      -0.946  -6.647  12.579  1.00  0.00     0.214 HD
ENDBRANCH  24  25
BRANCH  24  27
ATOM     27  N   UNL     1       1.770  -6.748  11.975  1.00  0.00    -0.259 NA
ATOM     28  C   UNL     1       1.459  -7.395  10.689  1.00  0.00     0.104 C 
ATOM     29  C   UNL     1       3.130  -6.187  12.008  1.00  0.00     0.089 C 
ATOM     30  C   UNL     1       2.709  -7.131   9.836  1.00  0.00     0.025 C 
ATOM     31  C   UNL     1       3.812  -6.842  10.827  1.00  0.00     0.017 C 
BRANCH  28  32
ATOM     32  C   UNL     1       1.150  -8.888  10.816  1.00  0.00     0.197 C 
BRANCH  32  33
ATOM     33  O   UNL     1       2.057  -9.695  11.040  1.00  0.00    -0.377 OA
ATOM     34  H   UNL     1       2.841  -9.473  10.478  1.00  0.00     0.212 HD
ENDBRANCH  32  33
BRANCH  32  35
ATOM     35  N   UNL     1      -0.103  -9.256  10.600  1.00  0.00    -0.305 NA
ATOM     36  H   UNL     1      -0.736  -8.486  10.860  1.00  0.00     0.121 HD
ATOM     37  H   UNL     1      -0.228  -9.482   9.603  1.00  0.00     0.121 HD
ENDBRANCH  32  35
ENDBRANCH  28  32
ENDBRANCH  24  27
ENDBRANCH   1  24
TORSDOF 10
ENDMDL
MODEL 8
REMARK VINA RESULT:    -7.806      2.266      3.490
REMARK INTER + INTRA:         -12.859
REMARK INTER:                 -11.596
REMARK INTRA:                  -1.264
REMARK UNBOUND:                -1.174
REMARK SMILES C[C@H]1N[C@@H](N[C@@H](O)N2CCC[C@H]2[C@@H](N)O)S[C@@H]1[C@H]1CCN[C@H](C(C)(C)C(F)(F)F)C1
REMARK SMILES IDX 5 1 4 3 2 4 17 5 3 6 16 7 1 8 18 10 19 11 30 12 20 13 22 14
REMARK SMILES IDX 21 15 23 17 24 18 25 19 26 20 27 21 28 22 29 23 6 24 7 25
REMARK SMILES IDX 8 27 12 28 9 29 11 30 10 31 13 32 15 33 14 35
REMARK H PARENT 5 2 3 9 21 16 7 26 15 34 14 36 14 37
ROOT
ATOM      1  N   UNL     1       1.306  -6.600  14.423  1.00  0.00    -0.255 NA
ATOM      2  H   UNL     1       2.207  -7.092  14.506  1.00  0.00     0.129 HD
ENDROOT
BRANCH   1   3
ATOM      3  C   UNL     1       0.465  -7.209  15.335  1.00  0.00     0.185 C 
ATOM      4  C   UNL     1      -0.929  -8.756  16.084  1.00  0.00     0.066 C 
ATOM      5  C   UNL     1      -0.888  -7.964  17.227  1.00  0.00     0.069 C 
ATOM      6  N   UNL     1      -0.155  -8.320  15.027  1.00  0.00    -0.290 NA
ATOM      7  S   UNL     1       0.153  -6.594  16.919  1.00  0.00    -0.122 SA
ATOM      8  C   UNL     1      -1.707 -10.021  15.921  1.00  0.00     0.025 C 
ATOM      9  H   UNL     1       0.542  -9.043  14.798  1.00  0.00     0.125 HD
BRANCH   5  10
ATOM     10  C   UNL     1      -1.529  -8.031  18.560  1.00  0.00     0.006 C 
ATOM     11  C   UNL     1      -1.941  -6.881  19.224  1.00  0.00     0.020 C 
ATOM     12  C   UNL     1      -1.753  -9.267  19.158  1.00  0.00     0.024 C 
ATOM     13  C   UNL     1      -2.514  -7.008  20.470  1.00  0.00     0.081 C 
ATOM     14  C   UNL     1      -2.361  -9.295  20.421  1.00  0.00     0.068 C 
ATOM     15  N   UNL     1      -2.720  -8.185  21.079  1.00  0.00    -0.313 NA
ATOM     16  H   UNL     1      -2.196  -8.168  21.965  1.00  0.00     0.122 HD
BRANCH  14  17
ATOM     17  C   UNL     1      -2.702 -10.636  21.115  1.00  0.00     0.076 C 
ATOM     18  C   UNL     1      -1.572 -11.662  20.931  1.00  0.00     0.022 C 
ATOM     19  C   UNL     1      -2.954 -10.408  22.616  1.00  0.00     0.022 C 
BRANCH  17  20
ATOM     20  C   UNL     1      -4.054 -11.278  20.464  1.00  0.00     0.395 C 
ATOM     21  F   UNL     1      -3.837 -11.640  19.200  1.00  0.00    -0.170 F 
ATOM     22  F   UNL     1      -4.479 -12.358  21.110  1.00  0.00    -0.170 F 
ATOM     23  F   UNL     1      -5.064 -10.416  20.466  1.00  0.00    -0.170 F 
ENDBRANCH  17  20
ENDBRANCH  14  17
ENDBRANCH   5  10
ENDBRANCH   1   3
BRANCH   1  24
ATOM     24  C   UNL     1       1.050  -6.507  13.047  1.00  0.00     0.261 C 
BRANCH  24  25
ATOM     25  O   UNL     1       0.048  -5.957  12.615  1.00  0.00    -0.365 OA
ATOM     26  H   UNL     1      -0.264  -5.280  13.268  1.00  0.00     0.214 HD
ENDBRANCH  24  25
BRANCH  24  27
ATOM     27  N   UNL     1       1.979  -7.064  12.190  1.00  0.00    -0.259 NA
ATOM     28  C   UNL     1       1.530  -7.844  11.025  1.00  0.00     0.104 C 
ATOM     29  C   UNL     1       3.445  -6.975  12.275  1.00  0.00     0.089 C 
ATOM     30  C   UNL     1       2.835  -8.189  10.290  1.00  0.00     0.025 C 
ATOM     31  C   UNL     1       3.922  -8.057  11.331  1.00  0.00     0.017 C 
BRANCH  28  32
ATOM     32  C   UNL     1       0.729  -9.094  11.397  1.00  0.00     0.197 C 
BRANCH  32  33
ATOM     33  O   UNL     1      -0.374  -8.986  11.940  1.00  0.00    -0.377 OA
ATOM     34  H   UNL     1      -0.598  -8.028  12.044  1.00  0.00     0.212 HD
ENDBRANCH  32  33
BRANCH  32  35
ATOM     35  N   UNL     1       1.312 -10.261  11.174  1.00  0.00    -0.305 NA
ATOM     36  H   UNL     1       2.056 -10.411  11.870  1.00  0.00     0.121 HD
ATOM     37  H   UNL     1       0.613 -11.014  11.251  1.00  0.00     0.121 HD
ENDBRANCH  32  35
ENDBRANCH  28  32
ENDBRANCH  24  27
ENDBRANCH   1  24
TORSDOF 10
ENDMDL
MODEL 9
REMARK VINA RESULT:    -7.790      2.167      3.884
REMARK INTER + INTRA:         -12.835
REMARK INTER:                 -11.911
REMARK INTRA:                  -0.925
REMARK UNBOUND:                -1.174
REMARK SMILES C[C@H]1N[C@@H](N[C@@H](O)N2CCC[C@H]2[C@@H](N)O)S[C@@H]1[C@H]1CCN[C@H](C(C)(C)C(F)(F)F)C1
REMARK SMILES IDX 5 1 4 3 2 4 17 5 3 6 16 7 1 8 18 10 19 11 30 12 20 13 22 14
REMARK SMILES IDX 21 15 23 17 24 18 25 19 26 20 27 21 28 22 29 23 6 24 7 25
REMARK SMILES IDX 8 27 12 28 9 29 11 30 10 31 13 32 15 33 14 35
REMARK H PARENT 5 2 3 9 21 16 7 26 15 34 14 36 14 37
ROOT
ATOM      1  N   UNL     1       0.569  -7.757  13.684  1.00  0.00    -0.255 NA
ATOM      2  H   UNL     1      -0.163  -8.360  13.280  1.00  0.00     0.129 HD
ENDROOT
BRANCH   1   3
ATOM      3  C   UNL     1       0.064  -7.317  14.892  1.00  0.00     0.185 C 
ATOM      4  C   UNL     1      -0.577  -5.826  16.395  1.00  0.00     0.066 C 
ATOM      5  C   UNL     1      -0.901  -6.973  17.113  1.00  0.00     0.069 C 
ATOM      6  N   UNL     1      -0.040  -6.037  15.141  1.00  0.00    -0.290 NA
ATOM      7  S   UNL     1      -0.467  -8.369  16.156  1.00  0.00    -0.122 SA
ATOM      8  C   UNL     1      -0.781  -4.418  16.854  1.00  0.00     0.025 C 
ATOM      9  H   UNL     1      -0.651  -5.604  14.435  1.00  0.00     0.125 HD
BRANCH   5  10
ATOM     10  C   UNL     1      -1.480  -7.232  18.450  1.00  0.00     0.006 C 
ATOM     11  C   UNL     1      -1.679  -6.204  19.365  1.00  0.00     0.020 C 
ATOM     12  C   UNL     1      -1.863  -8.523  18.799  1.00  0.00     0.024 C 
ATOM     13  C   UNL     1      -2.205  -6.513  20.600  1.00  0.00     0.081 C 
ATOM     14  C   UNL     1      -2.408  -8.735  20.074  1.00  0.00     0.068 C 
ATOM     15  N   UNL     1      -2.560  -7.751  20.971  1.00  0.00    -0.313 NA
ATOM     16  H   UNL     1      -1.998  -7.998  21.798  1.00  0.00     0.122 HD
BRANCH  14  17
ATOM     17  C   UNL     1      -2.917 -10.132  20.505  1.00  0.00     0.076 C 
ATOM     18  C   UNL     1      -4.125 -10.017  21.448  1.00  0.00     0.022 C 
ATOM     19  C   UNL     1      -3.304 -10.961  19.268  1.00  0.00     0.022 C 
BRANCH  17  20
ATOM     20  C   UNL     1      -1.745 -10.933  21.310  1.00  0.00     0.395 C 
ATOM     21  F   UNL     1      -2.081 -11.090  22.590  1.00  0.00    -0.170 F 
ATOM     22  F   UNL     1      -1.513 -12.144  20.818  1.00  0.00    -0.170 F 
ATOM     23  F   UNL     1      -0.587 -10.284  21.276  1.00  0.00    -0.170 F 
ENDBRANCH  17  20
ENDBRANCH  14  17
ENDBRANCH   5  10
ENDBRANCH   1   3
BRANCH   1  24
ATOM     24  C   UNL     1       0.981  -6.913  12.642  1.00  0.00     0.261 C 
BRANCH  24  25
ATOM     25  O   UNL     1       0.377  -5.886  12.370  1.00  0.00    -0.365 OA
ATOM     26  H   UNL     1       1.021  -5.139  12.278  1.00  0.00     0.214 HD
ENDBRANCH  24  25
BRANCH  24  27
ATOM     27  N   UNL     1       2.103  -7.287  11.928  1.00  0.00    -0.259 NA
ATOM     28  C   UNL     1       1.957  -7.945  10.619  1.00  0.00     0.104 C 
ATOM     29  C   UNL     1       3.512  -7.100  12.309  1.00  0.00     0.089 C 
ATOM     30  C   UNL     1       3.403  -8.096  10.122  1.00  0.00     0.025 C 
ATOM     31  C   UNL     1       4.259  -8.016  11.364  1.00  0.00     0.017 C 
BRANCH  28  32
ATOM     32  C   UNL     1       1.226  -9.288  10.688  1.00  0.00     0.197 C 
BRANCH  32  33
ATOM     33  O   UNL     1       1.866 -10.340  10.771  1.00  0.00    -0.377 OA
ATOM     34  H   UNL     1       1.268 -11.105  10.578  1.00  0.00     0.212 HD
ENDBRANCH  32  33
BRANCH  32  35
ATOM     35  N   UNL     1      -0.092  -9.253  10.581  1.00  0.00    -0.305 NA
ATOM     36  H   UNL     1      -0.395  -9.922   9.859  1.00  0.00     0.121 HD
ATOM     37  H   UNL     1      -0.517  -9.507  11.484  1.00  0.00     0.121 HD
ENDBRANCH  32  35
ENDBRANCH  28  32
ENDBRANCH  24  27
ENDBRANCH   1  24
TORSDOF 10
ENDMDL
MODEL 10
REMARK VINA RESULT:    -7.748      1.842      2.627
REMARK INTER + INTRA:         -12.772
REMARK INTER:                 -11.732
REMARK INTRA:                  -1.040
REMARK UNBOUND:                -1.174
REMARK SMILES C[C@H]1N[C@@H](N[C@@H](O)N2CCC[C@H]2[C@@H](N)O)S[C@@H]1[C@H]1CCN[C@H](C(C)(C)C(F)(F)F)C1
REMARK SMILES IDX 5 1 4 3 2 4 17 5 3 6 16 7 1 8 18 10 19 11 30 12 20 13 22 14
REMARK SMILES IDX 21 15 23 17 24 18 25 19 26 20 27 21 28 22 29 23 6 24 7 25
REMARK SMILES IDX 8 27 12 28 9 29 11 30 10 31 13 32 15 33 14 35
REMARK H PARENT 5 2 3 9 21 16 7 26 15 34 14 36 14 37
ROOT
ATOM      1  N   UNL     1       0.261  -8.504  13.144  1.00  0.00    -0.255 NA
ATOM      2  H   UNL     1      -0.366  -8.863  12.409  1.00  0.00     0.129 HD
ENDROOT
BRANCH   1   3
ATOM      3  C   UNL     1      -0.381  -8.767  14.339  1.00  0.00     0.185 C 
ATOM      4  C   UNL     1      -0.996  -8.391  16.431  1.00  0.00     0.066 C 
ATOM      5  C   UNL     1      -1.691  -9.581  16.237  1.00  0.00     0.069 C 
ATOM      6  N   UNL     1      -0.267  -7.942  15.349  1.00  0.00    -0.290 NA
ATOM      7  S   UNL     1      -1.366 -10.158  14.620  1.00  0.00    -0.122 SA
ATOM      8  C   UNL     1      -0.995  -7.570  17.680  1.00  0.00     0.025 C 
ATOM      9  H   UNL     1      -0.616  -7.014  15.068  1.00  0.00     0.125 HD
BRANCH   5  10
ATOM     10  C   UNL     1      -2.575 -10.416  17.080  1.00  0.00     0.006 C 
ATOM     11  C   UNL     1      -3.313 -11.464  16.540  1.00  0.00     0.020 C 
ATOM     12  C   UNL     1      -2.655 -10.175  18.448  1.00  0.00     0.024 C 
ATOM     13  C   UNL     1      -4.132 -12.193  17.374  1.00  0.00     0.081 C 
ATOM     14  C   UNL     1      -3.502 -10.985  19.219  1.00  0.00     0.068 C 
ATOM     15  N   UNL     1      -4.246 -11.967  18.691  1.00  0.00    -0.313 NA
ATOM     16  H   UNL     1      -5.233 -11.743  18.880  1.00  0.00     0.122 HD
BRANCH  14  17
ATOM     17  C   UNL     1      -3.590 -10.818  20.755  1.00  0.00     0.076 C 
ATOM     18  C   UNL     1      -4.131  -9.430  21.134  1.00  0.00     0.022 C 
ATOM     19  C   UNL     1      -4.494 -11.908  21.357  1.00  0.00     0.022 C 
BRANCH  17  20
ATOM     20  C   UNL     1      -2.107 -10.961  21.421  1.00  0.00     0.395 C 
ATOM     21  F   UNL     1      -2.202 -11.201  22.728  1.00  0.00    -0.170 F 
ATOM     22  F   UNL     1      -1.395 -11.951  20.895  1.00  0.00    -0.170 F 
ATOM     23  F   UNL     1      -1.386  -9.856  21.268  1.00  0.00    -0.170 F 
ENDBRANCH  17  20
ENDBRANCH  14  17
ENDBRANCH   5  10
ENDBRANCH   1   3
BRANCH   1  24
ATOM     24  C   UNL     1       0.652  -7.226  12.718  1.00  0.00     0.261 C 
BRANCH  24  25
ATOM     25  O   UNL     1      -0.008  -6.232  12.979  1.00  0.00    -0.365 OA
ATOM     26  H   UNL     1      -0.921  -6.335  12.609  1.00  0.00     0.214 HD
ENDBRANCH  24  25
BRANCH  24  27
ATOM     27  N   UNL     1       1.820  -7.131  11.986  1.00  0.00    -0.259 NA
ATOM     28  C   UNL     1       3.118  -7.075  12.678  1.00  0.00     0.104 C 
ATOM     29  C   UNL     1       1.960  -7.086  10.522  1.00  0.00     0.089 C 
ATOM     30  C   UNL     1       4.143  -7.080  11.532  1.00  0.00     0.025 C 
ATOM     31  C   UNL     1       3.381  -6.607  10.317  1.00  0.00     0.017 C 
BRANCH  28  32
ATOM     32  C   UNL     1       3.274  -5.854  13.587  1.00  0.00     0.197 C 
BRANCH  32  33
ATOM     33  O   UNL     1       3.743  -5.980  14.722  1.00  0.00    -0.377 OA
ATOM     34  H   UNL     1       4.373  -5.238  14.903  1.00  0.00     0.212 HD
ENDBRANCH  32  33
BRANCH  32  35
ATOM     35  N   UNL     1       2.818  -4.704  13.120  1.00  0.00    -0.305 NA
ATOM     36  H   UNL     1       3.380  -3.931  13.503  1.00  0.00     0.121 HD
ATOM     37  H   UNL     1       2.884  -4.700  12.092  1.00  0.00     0.121 HD
ENDBRANCH  32  35
ENDBRANCH  28  32
ENDBRANCH  24  27
ENDBRANCH   1  24
TORSDOF 10
ENDMDL
MODEL 11
REMARK VINA RESULT:    -7.742      2.669      3.972
REMARK INTER + INTRA:         -12.763
REMARK INTER:                 -11.713
REMARK INTRA:                  -1.051
REMARK UNBOUND:                -1.174
REMARK SMILES C[C@H]1N[C@@H](N[C@@H](O)N2CCC[C@H]2[C@@H](N)O)S[C@@H]1[C@H]1CCN[C@H](C(C)(C)C(F)(F)F)C1
REMARK SMILES IDX 5 1 4 3 2 4 17 5 3 6 16 7 1 8 18 10 19 11 30 12 20 13 22 14
REMARK SMILES IDX 21 15 23 17 24 18 25 19 26 20 27 21 28 22 29 23 6 24 7 25
REMARK SMILES IDX 8 27 12 28 9 29 11 30 10 31 13 32 15 33 14 35
REMARK H PARENT 5 2 3 9 21 16 7 26 15 34 14 36 14 37
ROOT
ATOM      1  N   UNL     1       0.293  -7.925  14.006  1.00  0.00    -0.255 NA
ATOM      2  H   UNL     1      -0.473  -8.508  13.639  1.00  0.00     0.129 HD
ENDROOT
BRANCH   1   3
ATOM      3  C   UNL     1      -0.095  -7.561  15.281  1.00  0.00     0.185 C 
ATOM      4  C   UNL     1      -0.326  -6.212  17.019  1.00  0.00     0.066 C 
ATOM      5  C   UNL     1      -0.974  -7.323  17.551  1.00  0.00     0.069 C 
ATOM      6  N   UNL     1       0.157  -6.360  15.735  1.00  0.00    -0.290 NA
ATOM      7  S   UNL     1      -0.926  -8.612  16.372  1.00  0.00    -0.122 SA
ATOM      8  C   UNL     1      -0.138  -4.896  17.702  1.00  0.00     0.025 C 
ATOM      9  H   UNL     1      -0.292  -5.666  15.122  1.00  0.00     0.125 HD
BRANCH   5  10
ATOM     10  C   UNL     1      -1.632  -7.622  18.842  1.00  0.00     0.006 C 
ATOM     11  C   UNL     1      -2.086  -6.606  19.676  1.00  0.00     0.020 C 
ATOM     12  C   UNL     1      -1.830  -8.944  19.228  1.00  0.00     0.024 C 
ATOM     13  C   UNL     1      -2.673  -6.948  20.874  1.00  0.00     0.081 C 
ATOM     14  C   UNL     1      -2.455  -9.192  20.458  1.00  0.00     0.068 C 
ATOM     15  N   UNL     1      -2.855  -8.212  21.280  1.00  0.00    -0.313 NA
ATOM     16  H   UNL     1      -2.344  -8.327  22.168  1.00  0.00     0.122 HD
BRANCH  14  17
ATOM     17  C   UNL     1      -2.768 -10.636  20.920  1.00  0.00     0.076 C 
ATOM     18  C   UNL     1      -1.672 -11.615  20.469  1.00  0.00     0.022 C 
ATOM     19  C   UNL     1      -2.908 -10.685  22.452  1.00  0.00     0.022 C 
BRANCH  17  20
ATOM     20  C   UNL     1      -4.173 -11.144  20.263  1.00  0.00     0.395 C 
ATOM     21  F   UNL     1      -5.153 -10.282  20.532  1.00  0.00    -0.170 F 
ATOM     22  F   UNL     1      -4.115 -11.265  18.942  1.00  0.00    -0.170 F 
ATOM     23  F   UNL     1      -4.542 -12.330  20.734  1.00  0.00    -0.170 F 
ENDBRANCH  17  20
ENDBRANCH  14  17
ENDBRANCH   5  10
ENDBRANCH   1   3
BRANCH   1  24
ATOM     24  C   UNL     1       0.601  -7.017  12.981  1.00  0.00     0.261 C 
BRANCH  24  25
ATOM     25  O   UNL     1      -0.139  -6.084  12.706  1.00  0.00    -0.365 OA
ATOM     26  H   UNL     1      -1.067  -6.417  12.606  1.00  0.00     0.214 HD
ENDBRANCH  24  25
BRANCH  24  27
ATOM     27  N   UNL     1       1.780  -7.216  12.289  1.00  0.00    -0.259 NA
ATOM     28  C   UNL     1       1.747  -7.767  10.924  1.00  0.00     0.104 C 
ATOM     29  C   UNL     1       3.148  -6.928  12.747  1.00  0.00     0.089 C 
ATOM     30  C   UNL     1       3.218  -7.733  10.482  1.00  0.00     0.025 C 
ATOM     31  C   UNL     1       4.017  -7.681  11.763  1.00  0.00     0.017 C 
BRANCH  28  32
ATOM     32  C   UNL     1       1.153  -9.175  10.847  1.00  0.00     0.197 C 
BRANCH  32  33
ATOM     33  O   UNL     1       1.877 -10.164  10.989  1.00  0.00    -0.377 OA
ATOM     34  H   UNL     1       2.332 -10.365  10.134  1.00  0.00     0.212 HD
ENDBRANCH  32  33
BRANCH  32  35
ATOM     35  N   UNL     1      -0.134  -9.260  10.552  1.00  0.00    -0.305 NA
ATOM     36  H   UNL     1      -0.250  -9.765   9.662  1.00  0.00     0.121 HD
ATOM     37  H   UNL     1      -0.625  -9.769  11.301  1.00  0.00     0.121 HD
ENDBRANCH  32  35
ENDBRANCH  28  32
ENDBRANCH  24  27
ENDBRANCH   1  24
TORSDOF 10
ENDMDL
MODEL 12
REMARK VINA RESULT:    -7.742      3.550      5.551
REMARK INTER + INTRA:         -12.763
REMARK INTER:                 -11.626
REMARK INTRA:                  -1.138
REMARK UNBOUND:                -1.174
REMARK SMILES C[C@H]1N[C@@H](N[C@@H](O)N2CCC[C@H]2[C@@H](N)O)S[C@@H]1[C@H]1CCN[C@H](C(C)(C)C(F)(F)F)C1
REMARK SMILES IDX 5 1 4 3 2 4 17 5 3 6 16 7 1 8 18 10 19 11 30 12 20 13 22 14
REMARK SMILES IDX 21 15 23 17 24 18 25 19 26 20 27 21 28 22 29 23 6 24 7 25
REMARK SMILES IDX 8 27 12 28 9 29 11 30 10 31 13 32 15 33 14 35
REMARK H PARENT 5 2 3 9 21 16 7 26 15 34 14 36 14 37
ROOT
ATOM      1  N   UNL     1       1.298  -9.104  10.744  1.00  0.00    -0.255 NA
ATOM      2  H   UNL     1       0.565  -9.725  10.373  1.00  0.00     0.129 HD
ENDROOT
BRANCH   1   3
ATOM      3  C   UNL     1       0.867  -8.729  12.002  1.00  0.00     0.185 C 
ATOM      4  C   UNL     1       0.678  -7.407  13.767  1.00  0.00     0.066 C 
ATOM      5  C   UNL     1      -0.137  -8.442  14.214  1.00  0.00     0.069 C 
ATOM      6  N   UNL     1       1.232  -7.581  12.514  1.00  0.00    -0.290 NA
ATOM      7  S   UNL     1      -0.163  -9.696  12.996  1.00  0.00    -0.122 SA
ATOM      8  C   UNL     1       0.977  -6.144  14.507  1.00  0.00     0.025 C 
ATOM      9  H   UNL     1       0.916  -6.820  11.897  1.00  0.00     0.125 HD
BRANCH   5  10
ATOM     10  C   UNL     1      -0.918  -8.690  15.446  1.00  0.00     0.006 C 
ATOM     11  C   UNL     1      -1.200  -7.666  16.343  1.00  0.00     0.020 C 
ATOM     12  C   UNL     1      -1.409  -9.965  15.708  1.00  0.00     0.024 C 
ATOM     13  C   UNL     1      -1.916  -7.965  17.482  1.00  0.00     0.081 C 
ATOM     14  C   UNL     1      -2.145 -10.167  16.885  1.00  0.00     0.068 C 
ATOM     15  N   UNL     1      -2.380  -9.189  17.771  1.00  0.00    -0.313 NA
ATOM     16  H   UNL     1      -1.958  -9.475  18.666  1.00  0.00     0.122 HD
BRANCH  14  17
ATOM     17  C   UNL     1      -2.778 -11.542  17.208  1.00  0.00     0.076 C 
ATOM     18  C   UNL     1      -1.721 -12.658  17.197  1.00  0.00     0.022 C 
ATOM     19  C   UNL     1      -3.471 -11.498  18.582  1.00  0.00     0.022 C 
BRANCH  17  20
ATOM     20  C   UNL     1      -3.899 -11.921  16.084  1.00  0.00     0.395 C 
ATOM     21  F   UNL     1      -3.372 -12.704  15.144  1.00  0.00    -0.170 F 
ATOM     22  F   UNL     1      -4.942 -12.570  16.590  1.00  0.00    -0.170 F 
ATOM     23  F   UNL     1      -4.384 -10.841  15.482  1.00  0.00    -0.170 F 
ENDBRANCH  17  20
ENDBRANCH  14  17
ENDBRANCH   5  10
ENDBRANCH   1   3
BRANCH   1  24
ATOM     24  C   UNL     1       1.595  -8.207   9.707  1.00  0.00     0.261 C 
BRANCH  24  25
ATOM     25  O   UNL     1       0.722  -7.561   9.147  1.00  0.00    -0.365 OA
ATOM     26  H   UNL     1       0.214  -8.153   8.537  1.00  0.00     0.214 HD
ENDBRANCH  24  25
BRANCH  24  27
ATOM     27  N   UNL     1       2.921  -8.079   9.339  1.00  0.00    -0.259 NA
ATOM     28  C   UNL     1       3.390  -8.656   8.068  1.00  0.00     0.104 C 
ATOM     29  C   UNL     1       3.995  -7.396  10.077  1.00  0.00     0.089 C 
ATOM     30  C   UNL     1       4.859  -8.213   7.986  1.00  0.00     0.025 C 
ATOM     31  C   UNL     1       5.257  -7.895   9.408  1.00  0.00     0.017 C 
BRANCH  28  32
ATOM     32  C   UNL     1       3.240 -10.177   7.995  1.00  0.00     0.197 C 
BRANCH  32  33
ATOM     33  O   UNL     1       3.500 -10.876   8.979  1.00  0.00    -0.377 OA
ATOM     34  H   UNL     1       2.929 -11.684   8.969  1.00  0.00     0.212 HD
ENDBRANCH  32  33
BRANCH  32  35
ATOM     35  N   UNL     1       2.896 -10.684   6.822  1.00  0.00    -0.305 NA
ATOM     36  H   UNL     1       3.591 -11.388   6.536  1.00  0.00     0.121 HD
ATOM     37  H   UNL     1       1.969 -11.128   6.897  1.00  0.00     0.121 HD
ENDBRANCH  32  35
ENDBRANCH  28  32
ENDBRANCH  24  27
ENDBRANCH   1  24
TORSDOF 10
ENDMDL
MODEL 13
REMARK VINA RESULT:    -7.682      2.747      4.119
REMARK INTER + INTRA:         -12.674
REMARK INTER:                 -12.043
REMARK INTRA:                  -0.631
REMARK UNBOUND:                -1.174
REMARK SMILES C[C@H]1N[C@@H](N[C@@H](O)N2CCC[C@H]2[C@@H](N)O)S[C@@H]1[C@H]1CCN[C@H](C(C)(C)C(F)(F)F)C1
REMARK SMILES IDX 5 1 4 3 2 4 17 5 3 6 16 7 1 8 18 10 19 11 30 12 20 13 22 14
REMARK SMILES IDX 21 15 23 17 24 18 25 19 26 20 27 21 28 22 29 23 6 24 7 25
REMARK SMILES IDX 8 27 12 28 9 29 11 30 10 31 13 32 15 33 14 35
REMARK H PARENT 5 2 3 9 21 16 7 26 15 34 14 36 14 37
ROOT
ATOM      1  N   UNL     1       0.364  -9.708  11.854  1.00  0.00    -0.255 NA
ATOM      2  H   UNL     1      -0.575  -9.988  11.536  1.00  0.00     0.129 HD
ENDROOT
BRANCH   1   3
ATOM      3  C   UNL     1       0.171  -9.065  13.061  1.00  0.00     0.185 C 
ATOM      4  C   UNL     1       0.347  -7.419  14.530  1.00  0.00     0.066 C 
ATOM      5  C   UNL     1      -0.428  -8.281  15.299  1.00  0.00     0.069 C 
ATOM      6  N   UNL     1       0.671  -7.873  13.267  1.00  0.00    -0.290 NA
ATOM      7  S   UNL     1      -0.719  -9.738  14.380  1.00  0.00    -0.122 SA
ATOM      8  C   UNL     1       0.826  -6.065  14.943  1.00  0.00     0.025 C 
ATOM      9  H   UNL     1       0.291  -7.222  12.566  1.00  0.00     0.125 HD
BRANCH   5  10
ATOM     10  C   UNL     1      -0.999  -8.225  16.664  1.00  0.00     0.006 C 
ATOM     11  C   UNL     1      -1.005  -7.045  17.399  1.00  0.00     0.020 C 
ATOM     12  C   UNL     1      -1.568  -9.365  17.222  1.00  0.00     0.024 C 
ATOM     13  C   UNL     1      -1.534  -7.062  18.670  1.00  0.00     0.081 C 
ATOM     14  C   UNL     1      -2.099  -9.279  18.517  1.00  0.00     0.068 C 
ATOM     15  N   UNL     1      -2.067  -8.152  19.241  1.00  0.00    -0.313 NA
ATOM     16  H   UNL     1      -1.525  -8.349  20.094  1.00  0.00     0.122 HD
BRANCH  14  17
ATOM     17  C   UNL     1      -2.808 -10.488  19.174  1.00  0.00     0.076 C 
ATOM     18  C   UNL     1      -1.818 -11.341  19.984  1.00  0.00     0.022 C 
ATOM     19  C   UNL     1      -3.945 -10.003  20.091  1.00  0.00     0.022 C 
BRANCH  17  20
ATOM     20  C   UNL     1      -3.455 -11.451  18.026  1.00  0.00     0.395 C 
ATOM     21  F   UNL     1      -3.910 -10.724  17.007  1.00  0.00    -0.170 F 
ATOM     22  F   UNL     1      -2.583 -12.319  17.525  1.00  0.00    -0.170 F 
ATOM     23  F   UNL     1      -4.472 -12.167  18.493  1.00  0.00    -0.170 F 
ENDBRANCH  17  20
ENDBRANCH  14  17
ENDBRANCH   5  10
ENDBRANCH   1   3
BRANCH   1  24
ATOM     24  C   UNL     1       0.984  -9.127  10.737  1.00  0.00     0.261 C 
BRANCH  24  25
ATOM     25  O   UNL     1       0.337  -8.604   9.842  1.00  0.00    -0.365 OA
ATOM     26  H   UNL     1       0.040  -9.298   9.201  1.00  0.00     0.214 HD
ENDBRANCH  24  25
BRANCH  24  27
ATOM     27  N   UNL     1       2.364  -9.168  10.684  1.00  0.00    -0.259 NA
ATOM     28  C   UNL     1       3.148  -7.963  11.002  1.00  0.00     0.104 C 
ATOM     29  C   UNL     1       3.215 -10.319  10.344  1.00  0.00     0.089 C 
ATOM     30  C   UNL     1       4.605  -8.446  10.931  1.00  0.00     0.025 C 
ATOM     31  C   UNL     1       4.568  -9.695  10.081  1.00  0.00     0.017 C 
BRANCH  28  32
ATOM     32  C   UNL     1       2.881  -6.792  10.054  1.00  0.00     0.197 C 
BRANCH  32  33
ATOM     33  O   UNL     1       2.731  -6.992   8.845  1.00  0.00    -0.377 OA
ATOM     34  H   UNL     1       2.846  -7.956   8.654  1.00  0.00     0.212 HD
ENDBRANCH  32  33
BRANCH  32  35
ATOM     35  N   UNL     1       2.895  -5.581  10.588  1.00  0.00    -0.305 NA
ATOM     36  H   UNL     1       2.620  -4.890   9.877  1.00  0.00     0.121 HD
ATOM     37  H   UNL     1       2.233  -5.545  11.376  1.00  0.00     0.121 HD
ENDBRANCH  32  35
ENDBRANCH  28  32
ENDBRANCH  24  27
ENDBRANCH   1  24
TORSDOF 10
ENDMDL
MODEL 14
REMARK VINA RESULT:    -7.681      2.872      4.203
REMARK INTER + INTRA:         -12.671
REMARK INTER:                 -12.263
REMARK INTRA:                  -0.408
REMARK UNBOUND:                -1.174
REMARK SMILES C[C@H]1N[C@@H](N[C@@H](O)N2CCC[C@H]2[C@@H](N)O)S[C@@H]1[C@H]1CCN[C@H](C(C)(C)C(F)(F)F)C1
REMARK SMILES IDX 5 1 4 3 2 4 17 5 3 6 16 7 1 8 18 10 19 11 30 12 20 13 22 14
REMARK SMILES IDX 21 15 23 17 24 18 25 19 26 20 27 21 28 22 29 23 6 24 7 25
REMARK SMILES IDX 8 27 12 28 9 29 11 30 10 31 13 32 15 33 14 35
REMARK H PARENT 5 2 3 9 21 16 7 26 15 34 14 36 14 37
ROOT
ATOM      1  N   UNL     1       0.741  -8.127  11.927  1.00  0.00    -0.255 NA
ATOM      2  H   UNL     1       1.381  -7.346  12.134  1.00  0.00     0.129 HD
ENDROOT
BRANCH   1   3
ATOM      3  C   UNL     1       0.198  -8.495  13.143  1.00  0.00     0.185 C 
ATOM      4  C   UNL     1      -0.812  -9.833  14.587  1.00  0.00     0.066 C 
ATOM      5  C   UNL     1      -0.605  -8.753  15.439  1.00  0.00     0.069 C 
ATOM      6  N   UNL     1      -0.347  -9.674  13.297  1.00  0.00    -0.290 NA
ATOM      7  S   UNL     1       0.182  -7.478  14.540  1.00  0.00    -0.122 SA
ATOM      8  C   UNL     1      -1.461 -11.128  14.955  1.00  0.00     0.025 C 
ATOM      9  H   UNL     1       0.356 -10.400  13.100  1.00  0.00     0.125 HD
BRANCH   5  10
ATOM     10  C   UNL     1      -0.919  -8.475  16.858  1.00  0.00     0.006 C 
ATOM     11  C   UNL     1      -0.588  -7.260  17.449  1.00  0.00     0.020 C 
ATOM     12  C   UNL     1      -1.586  -9.430  17.619  1.00  0.00     0.024 C 
ATOM     13  C   UNL     1      -0.891  -7.069  18.779  1.00  0.00     0.081 C 
ATOM     14  C   UNL     1      -1.868  -9.135  18.960  1.00  0.00     0.068 C 
ATOM     15  N   UNL     1      -1.511  -7.982  19.541  1.00  0.00    -0.313 NA
ATOM     16  H   UNL     1      -0.879  -8.212  20.321  1.00  0.00     0.122 HD
BRANCH  14  17
ATOM     17  C   UNL     1      -2.665 -10.123  19.847  1.00  0.00     0.076 C 
ATOM     18  C   UNL     1      -1.727 -11.100  20.573  1.00  0.00     0.022 C 
ATOM     19  C   UNL     1      -3.507  -9.350  20.877  1.00  0.00     0.022 C 
BRANCH  17  20
ATOM     20  C   UNL     1      -3.677 -11.012  18.926  1.00  0.00     0.395 C 
ATOM     21  F   UNL     1      -4.106 -10.303  17.882  1.00  0.00    -0.170 F 
ATOM     22  F   UNL     1      -3.108 -12.110  18.442  1.00  0.00    -0.170 F 
ATOM     23  F   UNL     1      -4.747 -11.411  19.605  1.00  0.00    -0.170 F 
ENDBRANCH  17  20
ENDBRANCH  14  17
ENDBRANCH   5  10
ENDBRANCH   1   3
BRANCH   1  24
ATOM     24  C   UNL     1       1.458  -8.990  11.085  1.00  0.00     0.261 C 
BRANCH  24  25
ATOM     25  O   UNL     1       0.982 -10.043  10.689  1.00  0.00    -0.365 OA
ATOM     26  H   UNL     1       0.130 -10.219  11.163  1.00  0.00     0.214 HD
ENDBRANCH  24  25
BRANCH  24  27
ATOM     27  N   UNL     1       2.732  -8.603  10.715  1.00  0.00    -0.259 NA
ATOM     28  C   UNL     1       3.181  -8.784   9.325  1.00  0.00     0.104 C 
ATOM     29  C   UNL     1       3.764  -7.987  11.564  1.00  0.00     0.089 C 
ATOM     30  C   UNL     1       4.579  -8.147   9.307  1.00  0.00     0.025 C 
ATOM     31  C   UNL     1       5.030  -8.138  10.749  1.00  0.00     0.017 C 
BRANCH  28  32
ATOM     32  C   UNL     1       3.207 -10.247   8.877  1.00  0.00     0.197 C 
BRANCH  32  33
ATOM     33  O   UNL     1       3.634 -11.122   9.636  1.00  0.00    -0.377 OA
ATOM     34  H   UNL     1       2.889 -11.718   9.903  1.00  0.00     0.212 HD
ENDBRANCH  32  33
BRANCH  32  35
ATOM     35  N   UNL     1       2.825 -10.494   7.634  1.00  0.00    -0.305 NA
ATOM     36  H   UNL     1       3.651 -10.519   7.020  1.00  0.00     0.121 HD
ATOM     37  H   UNL     1       2.342 -11.403   7.598  1.00  0.00     0.121 HD
ENDBRANCH  32  35
ENDBRANCH  28  32
ENDBRANCH  24  27
ENDBRANCH   1  24
TORSDOF 10
ENDMDL
MODEL 15
REMARK VINA RESULT:    -7.657      3.564      5.296
REMARK INTER + INTRA:         -12.635
REMARK INTER:                 -11.609
REMARK INTRA:                  -1.026
REMARK UNBOUND:                -1.174
REMARK SMILES C[C@H]1N[C@@H](N[C@@H](O)N2CCC[C@H]2[C@@H](N)O)S[C@@H]1[C@H]1CCN[C@H](C(C)(C)C(F)(F)F)C1
REMARK SMILES IDX 5 1 4 3 2 4 17 5 3 6 16 7 1 8 18 10 19 11 30 12 20 13 22 14
REMARK SMILES IDX 21 15 23 17 24 18 25 19 26 20 27 21 28 22 29 23 6 24 7 25
REMARK SMILES IDX 8 27 12 28 9 29 11 30 10 31 13 32 15 33 14 35
REMARK H PARENT 5 2 3 9 21 16 7 26 15 34 14 36 14 37
ROOT
ATOM      1  N   UNL     1       1.841  -7.156  12.143  1.00  0.00    -0.255 NA
ATOM      2  H   UNL     1       1.722  -6.166  11.888  1.00  0.00     0.129 HD
ENDROOT
BRANCH   1   3
ATOM      3  C   UNL     1       1.289  -7.285  13.403  1.00  0.00     0.185 C 
ATOM      4  C   UNL     1       1.033  -6.843  15.555  1.00  0.00     0.066 C 
ATOM      5  C   UNL     1       0.027  -7.796  15.435  1.00  0.00     0.069 C 
ATOM      6  N   UNL     1       1.732  -6.561  14.399  1.00  0.00    -0.290 NA
ATOM      7  S   UNL     1       0.003  -8.374  13.786  1.00  0.00    -0.122 SA
ATOM      8  C   UNL     1       1.394  -6.102  16.802  1.00  0.00     0.025 C 
ATOM      9  H   UNL     1       1.616  -5.564  14.169  1.00  0.00     0.125 HD
BRANCH   5  10
ATOM     10  C   UNL     1      -0.949  -8.399  16.369  1.00  0.00     0.006 C 
ATOM     11  C   UNL     1      -1.433  -7.694  17.466  1.00  0.00     0.020 C 
ATOM     12  C   UNL     1      -1.422  -9.687  16.139  1.00  0.00     0.024 C 
ATOM     13  C   UNL     1      -2.326  -8.318  18.310  1.00  0.00     0.081 C 
ATOM     14  C   UNL     1      -2.346 -10.229  17.044  1.00  0.00     0.068 C 
ATOM     15  N   UNL     1      -2.779  -9.566  18.124  1.00  0.00    -0.313 NA
ATOM     16  H   UNL     1      -2.511 -10.116  18.953  1.00  0.00     0.122 HD
BRANCH  14  17
ATOM     17  C   UNL     1      -2.964 -11.630  16.814  1.00  0.00     0.076 C 
ATOM     18  C   UNL     1      -1.877 -12.716  16.757  1.00  0.00     0.022 C 
ATOM     19  C   UNL     1      -3.966 -11.958  17.935  1.00  0.00     0.022 C 
BRANCH  17  20
ATOM     20  C   UNL     1      -3.762 -11.665  15.391  1.00  0.00     0.395 C 
ATOM     21  F   UNL     1      -4.542 -10.592  15.266  1.00  0.00    -0.170 F 
ATOM     22  F   UNL     1      -2.950 -11.679  14.341  1.00  0.00    -0.170 F 
ATOM     23  F   UNL     1      -4.537 -12.738  15.282  1.00  0.00    -0.170 F 
ENDBRANCH  17  20
ENDBRANCH  14  17
ENDBRANCH   5  10
ENDBRANCH   1   3
BRANCH   1  24
ATOM     24  C   UNL     1       3.170  -7.472  11.823  1.00  0.00     0.261 C 
BRANCH  24  25
ATOM     25  O   UNL     1       4.098  -7.154  12.551  1.00  0.00    -0.365 OA
ATOM     26  H   UNL     1       3.749  -6.912  13.445  1.00  0.00     0.214 HD
ENDBRANCH  24  25
BRANCH  24  27
ATOM     27  N   UNL     1       3.393  -8.161  10.646  1.00  0.00    -0.259 NA
ATOM     28  C   UNL     1       2.257  -8.546   9.793  1.00  0.00     0.104 C 
ATOM     29  C   UNL     1       4.687  -8.582  10.085  1.00  0.00     0.089 C 
ATOM     30  C   UNL     1       2.924  -9.183   8.563  1.00  0.00     0.025 C 
ATOM     31  C   UNL     1       4.302  -9.593   9.027  1.00  0.00     0.017 C 
BRANCH  28  32
ATOM     32  C   UNL     1       1.274  -9.499  10.476  1.00  0.00     0.197 C 
BRANCH  32  33
ATOM     33  O   UNL     1       1.685 -10.523  11.031  1.00  0.00    -0.377 OA
ATOM     34  H   UNL     1       2.536 -10.806  10.613  1.00  0.00     0.212 HD
ENDBRANCH  32  33
BRANCH  32  35
ATOM     35  N   UNL     1      -0.011  -9.202  10.371  1.00  0.00    -0.305 NA
ATOM     36  H   UNL     1      -0.520  -9.596  11.175  1.00  0.00     0.121 HD
ATOM     37  H   UNL     1      -0.127  -8.179  10.358  1.00  0.00     0.121 HD
ENDBRANCH  32  35
ENDBRANCH  28  32
ENDBRANCH  24  27
ENDBRANCH   1  24
TORSDOF 10
ENDMDL
MODEL 16
REMARK VINA RESULT:    -7.605      3.123      4.066
REMARK INTER + INTRA:         -12.558
REMARK INTER:                 -11.536
REMARK INTRA:                  -1.022
REMARK UNBOUND:                -1.174
REMARK SMILES C[C@H]1N[C@@H](N[C@@H](O)N2CCC[C@H]2[C@@H](N)O)S[C@@H]1[C@H]1CCN[C@H](C(C)(C)C(F)(F)F)C1
REMARK SMILES IDX 5 1 4 3 2 4 17 5 3 6 16 7 1 8 18 10 19 11 30 12 20 13 22 14
REMARK SMILES IDX 21 15 23 17 24 18 25 19 26 20 27 21 28 22 29 23 6 24 7 25
REMARK SMILES IDX 8 27 12 28 9 29 11 30 10 31 13 32 15 33 14 35
REMARK H PARENT 5 2 3 9 21 16 7 26 15 34 14 36 14 37
ROOT
ATOM      1  N   UNL     1       0.678  -8.178  12.242  1.00  0.00    -0.255 NA
ATOM      2  H   UNL     1       1.625  -7.917  12.555  1.00  0.00     0.129 HD
ENDROOT
BRANCH   1   3
ATOM      3  C   UNL     1       0.013  -8.594  13.380  1.00  0.00     0.185 C 
ATOM      4  C   UNL     1      -1.225  -9.944  14.620  1.00  0.00     0.066 C 
ATOM      5  C   UNL     1      -0.981  -8.969  15.582  1.00  0.00     0.069 C 
ATOM      6  N   UNL     1      -0.651  -9.722  13.385  1.00  0.00    -0.290 NA
ATOM      7  S   UNL     1      -0.012  -7.706  14.861  1.00  0.00    -0.122 SA
ATOM      8  C   UNL     1      -2.019 -11.194  14.821  1.00  0.00     0.025 C 
ATOM      9  H   UNL     1      -0.007 -10.495  13.167  1.00  0.00     0.125 HD
BRANCH   5  10
ATOM     10  C   UNL     1      -1.374  -8.785  16.997  1.00  0.00     0.006 C 
ATOM     11  C   UNL     1      -1.918  -9.827  17.739  1.00  0.00     0.020 C 
ATOM     12  C   UNL     1      -1.174  -7.555  17.616  1.00  0.00     0.024 C 
ATOM     13  C   UNL     1      -2.281  -9.588  19.046  1.00  0.00     0.081 C 
ATOM     14  C   UNL     1      -1.558  -7.414  18.957  1.00  0.00     0.068 C 
ATOM     15  N   UNL     1      -2.121  -8.407  19.659  1.00  0.00    -0.313 NA
ATOM     16  H   UNL     1      -3.054  -8.084  19.955  1.00  0.00     0.122 HD
BRANCH  14  17
ATOM     17  C   UNL     1      -1.303  -6.096  19.729  1.00  0.00     0.076 C 
ATOM     18  C   UNL     1      -0.913  -6.373  21.190  1.00  0.00     0.022 C 
ATOM     19  C   UNL     1      -0.191  -5.285  19.041  1.00  0.00     0.022 C 
BRANCH  17  20
ATOM     20  C   UNL     1      -2.658  -5.187  19.751  1.00  0.00     0.395 C 
ATOM     21  F   UNL     1      -3.517  -5.650  20.658  1.00  0.00    -0.170 F 
ATOM     22  F   UNL     1      -2.425  -3.915  20.050  1.00  0.00    -0.170 F 
ATOM     23  F   UNL     1      -3.277  -5.191  18.575  1.00  0.00    -0.170 F 
ENDBRANCH  17  20
ENDBRANCH  14  17
ENDBRANCH   5  10
ENDBRANCH   1   3
BRANCH   1  24
ATOM     24  C   UNL     1       0.863  -8.968  11.098  1.00  0.00     0.261 C 
BRANCH  24  25
ATOM     25  O   UNL     1      -0.077  -9.315  10.398  1.00  0.00    -0.365 OA
ATOM     26  H   UNL     1      -0.179 -10.299  10.447  1.00  0.00     0.214 HD
ENDBRANCH  24  25
BRANCH  24  27
ATOM     27  N   UNL     1       2.156  -9.343  10.786  1.00  0.00    -0.259 NA
ATOM     28  C   UNL     1       3.241  -8.348  10.832  1.00  0.00     0.104 C 
ATOM     29  C   UNL     1       2.634 -10.680  10.400  1.00  0.00     0.089 C 
ATOM     30  C   UNL     1       4.503  -9.171  10.530  1.00  0.00     0.025 C 
ATOM     31  C   UNL     1       4.008 -10.412   9.826  1.00  0.00     0.017 C 
BRANCH  28  32
ATOM     32  C   UNL     1       3.054  -7.193   9.847  1.00  0.00     0.197 C 
BRANCH  32  33
ATOM     33  O   UNL     1       2.293  -6.260  10.119  1.00  0.00    -0.377 OA
ATOM     34  H   UNL     1       2.526  -5.893  11.008  1.00  0.00     0.212 HD
ENDBRANCH  32  33
BRANCH  32  35
ATOM     35  N   UNL     1       3.684  -7.294   8.688  1.00  0.00    -0.305 NA
ATOM     36  H   UNL     1       3.418  -8.175   8.228  1.00  0.00     0.121 HD
ATOM     37  H   UNL     1       3.424  -6.500   8.085  1.00  0.00     0.121 HD
ENDBRANCH  32  35
ENDBRANCH  28  32
ENDBRANCH  24  27
ENDBRANCH   1  24
TORSDOF 10
ENDMDL
MODEL 17
REMARK VINA RESULT:    -7.392      2.064      3.201
REMARK INTER + INTRA:         -12.238
REMARK INTER:                 -10.967
REMARK INTRA:                  -1.271
REMARK UNBOUND:                -1.174
REMARK SMILES C[C@H]1N[C@@H](N[C@@H](O)N2CCC[C@H]2[C@@H](N)O)S[C@@H]1[C@H]1CCN[C@H](C(C)(C)C(F)(F)F)C1
REMARK SMILES IDX 5 1 4 3 2 4 17 5 3 6 16 7 1 8 18 10 19 11 30 12 20 13 22 14
REMARK SMILES IDX 21 15 23 17 24 18 25 19 26 20 27 21 28 22 29 23 6 24 7 25
REMARK SMILES IDX 8 27 12 28 9 29 11 30 10 31 13 32 15 33 14 35
REMARK H PARENT 5 2 3 9 21 16 7 26 15 34 14 36 14 37
ROOT
ATOM      1  N   UNL     1       1.330  -6.850  14.212  1.00  0.00    -0.255 NA
ATOM      2  H   UNL     1       2.216  -7.375  14.249  1.00  0.00     0.129 HD
ENDROOT
BRANCH   1   3
ATOM      3  C   UNL     1       0.550  -7.366  15.229  1.00  0.00     0.185 C 
ATOM      4  C   UNL     1      -0.810  -8.816  16.201  1.00  0.00     0.066 C 
ATOM      5  C   UNL     1      -0.667  -7.938  17.272  1.00  0.00     0.069 C 
ATOM      6  N   UNL     1      -0.111  -8.482  15.058  1.00  0.00    -0.290 NA
ATOM      7  S   UNL     1       0.372  -6.623  16.779  1.00  0.00    -0.122 SA
ATOM      8  C   UNL     1      -1.621 -10.071  16.198  1.00  0.00     0.025 C 
ATOM      9  H   UNL     1       0.553  -9.237  14.836  1.00  0.00     0.125 HD
BRANCH   5  10
ATOM     10  C   UNL     1      -1.205  -7.886  18.650  1.00  0.00     0.006 C 
ATOM     11  C   UNL     1      -1.764  -6.722  19.165  1.00  0.00     0.020 C 
ATOM     12  C   UNL     1      -1.180  -9.027  19.445  1.00  0.00     0.024 C 
ATOM     13  C   UNL     1      -2.230  -6.731  20.461  1.00  0.00     0.081 C 
ATOM     14  C   UNL     1      -1.697  -8.943  20.746  1.00  0.00     0.068 C 
ATOM     15  N   UNL     1      -2.197  -7.809  21.257  1.00  0.00    -0.313 NA
ATOM     16  H   UNL     1      -1.630  -7.566  22.082  1.00  0.00     0.122 HD
BRANCH  14  17
ATOM     17  C   UNL     1      -1.763 -10.188  21.664  1.00  0.00     0.076 C 
ATOM     18  C   UNL     1      -3.041 -10.182  22.519  1.00  0.00     0.022 C 
ATOM     19  C   UNL     1      -1.712 -11.473  20.818  1.00  0.00     0.022 C 
BRANCH  17  20
ATOM     20  C   UNL     1      -0.492 -10.200  22.687  1.00  0.00     0.395 C 
ATOM     21  F   UNL     1      -0.321 -11.415  23.206  1.00  0.00    -0.170 F 
ATOM     22  F   UNL     1       0.650  -9.864  22.100  1.00  0.00    -0.170 F 
ATOM     23  F   UNL     1      -0.660  -9.353  23.697  1.00  0.00    -0.170 F 
ENDBRANCH  17  20
ENDBRANCH  14  17
ENDBRANCH   5  10
ENDBRANCH   1   3
BRANCH   1  24
ATOM     24  C   UNL     1       0.958  -6.831  12.859  1.00  0.00     0.261 C 
BRANCH  24  25
ATOM     25  O   UNL     1       0.208  -5.977  12.411  1.00  0.00    -0.365 OA
ATOM     26  H   UNL     1      -0.705  -6.119  12.767  1.00  0.00     0.214 HD
ENDBRANCH  24  25
BRANCH  24  27
ATOM     27  N   UNL     1       1.473  -7.822  12.045  1.00  0.00    -0.259 NA
ATOM     28  C   UNL     1       2.855  -7.720  11.549  1.00  0.00     0.104 C 
ATOM     29  C   UNL     1       0.798  -9.045  11.583  1.00  0.00     0.089 C 
ATOM     30  C   UNL     1       3.068  -9.038  10.787  1.00  0.00     0.025 C 
ATOM     31  C   UNL     1       1.679  -9.531  10.453  1.00  0.00     0.017 C 
BRANCH  28  32
ATOM     32  C   UNL     1       3.100  -6.496  10.665  1.00  0.00     0.197 C 
BRANCH  32  33
ATOM     33  O   UNL     1       2.486  -6.364   9.602  1.00  0.00    -0.377 OA
ATOM     34  H   UNL     1       2.705  -5.485   9.202  1.00  0.00     0.212 HD
ENDBRANCH  32  33
BRANCH  32  35
ATOM     35  N   UNL     1       4.037  -5.652  11.065  1.00  0.00    -0.305 NA
ATOM     36  H   UNL     1       3.619  -4.725  11.225  1.00  0.00     0.121 HD
ATOM     37  H   UNL     1       4.457  -5.995  11.941  1.00  0.00     0.121 HD
ENDBRANCH  32  35
ENDBRANCH  28  32
ENDBRANCH  24  27
ENDBRANCH   1  24
TORSDOF 10
ENDMDL
MODEL 18
REMARK VINA RESULT:    -7.350      1.870      2.664
REMARK INTER + INTRA:         -12.176
REMARK INTER:                 -10.885
REMARK INTRA:                  -1.291
REMARK UNBOUND:                -1.174
REMARK SMILES C[C@H]1N[C@@H](N[C@@H](O)N2CCC[C@H]2[C@@H](N)O)S[C@@H]1[C@H]1CCN[C@H](C(C)(C)C(F)(F)F)C1
REMARK SMILES IDX 5 1 4 3 2 4 17 5 3 6 16 7 1 8 18 10 19 11 30 12 20 13 22 14
REMARK SMILES IDX 21 15 23 17 24 18 25 19 26 20 27 21 28 22 29 23 6 24 7 25
REMARK SMILES IDX 8 27 12 28 9 29 11 30 10 31 13 32 15 33 14 35
REMARK H PARENT 5 2 3 9 21 16 7 26 15 34 14 36 14 37
ROOT
ATOM      1  N   UNL     1       0.484  -6.672  14.653  1.00  0.00    -0.255 NA
ATOM      2  H   UNL     1       1.473  -6.739  14.930  1.00  0.00     0.129 HD
ENDROOT
BRANCH   1   3
ATOM      3  C   UNL     1      -0.161  -7.692  15.326  1.00  0.00     0.185 C 
ATOM      4  C   UNL     1      -0.921  -9.746  15.639  1.00  0.00     0.066 C 
ATOM      5  C   UNL     1      -1.340  -9.200  16.848  1.00  0.00     0.069 C 
ATOM      6  N   UNL     1      -0.251  -8.884  14.794  1.00  0.00    -0.290 NA
ATOM      7  S   UNL     1      -0.889  -7.512  16.882  1.00  0.00    -0.122 SA
ATOM      8  C   UNL     1      -1.114 -11.163  15.204  1.00  0.00     0.025 C 
ATOM      9  H   UNL     1       0.696  -9.250  14.621  1.00  0.00     0.125 HD
BRANCH   5  10
ATOM     10  C   UNL     1      -2.068  -9.721  18.026  1.00  0.00     0.006 C 
ATOM     11  C   UNL     1      -3.234 -10.466  17.886  1.00  0.00     0.020 C 
ATOM     12  C   UNL     1      -1.570  -9.491  19.305  1.00  0.00     0.024 C 
ATOM     13  C   UNL     1      -3.876 -10.908  19.022  1.00  0.00     0.081 C 
ATOM     14  C   UNL     1      -2.285  -9.998  20.400  1.00  0.00     0.068 C 
ATOM     15  N   UNL     1      -3.431 -10.680  20.266  1.00  0.00    -0.313 NA
ATOM     16  H   UNL     1      -4.163 -10.153  20.763  1.00  0.00     0.122 HD
BRANCH  14  17
ATOM     17  C   UNL     1      -1.755  -9.838  21.845  1.00  0.00     0.076 C 
ATOM     18  C   UNL     1      -2.431 -10.836  22.800  1.00  0.00     0.022 C 
ATOM     19  C   UNL     1      -0.230 -10.043  21.877  1.00  0.00     0.022 C 
BRANCH  17  20
ATOM     20  C   UNL     1      -2.079  -8.338  22.399  1.00  0.00     0.395 C 
ATOM     21  F   UNL     1      -1.106  -7.493  22.061  1.00  0.00    -0.170 F 
ATOM     22  F   UNL     1      -3.211  -7.839  21.915  1.00  0.00    -0.170 F 
ATOM     23  F   UNL     1      -2.192  -8.310  23.723  1.00  0.00    -0.170 F 
ENDBRANCH  17  20
ENDBRANCH  14  17
ENDBRANCH   5  10
ENDBRANCH   1   3
BRANCH   1  24
ATOM     24  C   UNL     1       0.491  -6.522  13.258  1.00  0.00     0.261 C 
BRANCH  24  25
ATOM     25  O   UNL     1      -0.371  -5.879  12.677  1.00  0.00    -0.365 OA
ATOM     26  H   UNL     1      -0.730  -6.413  11.925  1.00  0.00     0.214 HD
ENDBRANCH  24  25
BRANCH  24  27
ATOM     27  N   UNL     1       1.515  -7.132  12.559  1.00  0.00    -0.259 NA
ATOM     28  C   UNL     1       2.880  -6.587  12.631  1.00  0.00     0.104 C 
ATOM     29  C   UNL     1       1.431  -8.330  11.709  1.00  0.00     0.089 C 
ATOM     30  C   UNL     1       3.717  -7.589  11.820  1.00  0.00     0.025 C 
ATOM     31  C   UNL     1       2.727  -8.302  10.929  1.00  0.00     0.017 C 
BRANCH  28  32
ATOM     32  C   UNL     1       2.999  -5.162  12.087  1.00  0.00     0.197 C 
BRANCH  32  33
ATOM     33  O   UNL     1       3.040  -4.202  12.861  1.00  0.00    -0.377 OA
ATOM     34  H   UNL     1       3.983  -3.962  13.040  1.00  0.00     0.212 HD
ENDBRANCH  32  33
BRANCH  32  35
ATOM     35  N   UNL     1       2.981  -5.025  10.771  1.00  0.00    -0.305 NA
ATOM     36  H   UNL     1       3.363  -4.104  10.516  1.00  0.00     0.121 HD
ATOM     37  H   UNL     1       3.553  -5.765  10.340  1.00  0.00     0.121 HD
ENDBRANCH  32  35
ENDBRANCH  28  32
ENDBRANCH  24  27
ENDBRANCH   1  24
TORSDOF 10
ENDMDL
MODEL 19
REMARK VINA RESULT:    -7.323      3.064      4.592
REMARK INTER + INTRA:         -12.135
REMARK INTER:                 -10.981
REMARK INTRA:                  -1.154
REMARK UNBOUND:                -1.174
REMARK SMILES C[C@H]1N[C@@H](N[C@@H](O)N2CCC[C@H]2[C@@H](N)O)S[C@@H]1[C@H]1CCN[C@H](C(C)(C)C(F)(F)F)C1
REMARK SMILES IDX 5 1 4 3 2 4 17 5 3 6 16 7 1 8 18 10 19 11 30 12 20 13 22 14
REMARK SMILES IDX 21 15 23 17 24 18 25 19 26 20 27 21 28 22 29 23 6 24 7 25
REMARK SMILES IDX 8 27 12 28 9 29 11 30 10 31 13 32 15 33 14 35
REMARK H PARENT 5 2 3 9 21 16 7 26 15 34 14 36 14 37
ROOT
ATOM      1  N   UNL     1      -0.363  -5.542  15.865  1.00  0.00    -0.255 NA
ATOM      2  H   UNL     1      -1.212  -4.959  15.909  1.00  0.00     0.129 HD
ENDROOT
BRANCH   1   3
ATOM      3  C   UNL     1      -0.791  -6.838  16.080  1.00  0.00     0.185 C 
ATOM      4  C   UNL     1      -0.870  -9.024  15.750  1.00  0.00     0.066 C 
ATOM      5  C   UNL     1      -1.779  -8.955  16.801  1.00  0.00     0.069 C 
ATOM      6  N   UNL     1      -0.316  -7.822  15.360  1.00  0.00    -0.290 NA
ATOM      7  S   UNL     1      -1.954  -7.283  17.278  1.00  0.00    -0.122 SA
ATOM      8  C   UNL     1      -0.439 -10.269  15.044  1.00  0.00     0.025 C 
ATOM      9  H   UNL     1       0.705  -7.866  15.479  1.00  0.00     0.125 HD
BRANCH   5  10
ATOM     10  C   UNL     1      -2.596  -9.948  17.534  1.00  0.00     0.006 C 
ATOM     11  C   UNL     1      -3.206 -11.011  16.877  1.00  0.00     0.020 C 
ATOM     12  C   UNL     1      -2.741  -9.841  18.913  1.00  0.00     0.024 C 
ATOM     13  C   UNL     1      -3.969 -11.891  17.612  1.00  0.00     0.081 C 
ATOM     14  C   UNL     1      -3.523 -10.798  19.577  1.00  0.00     0.068 C 
ATOM     15  N   UNL     1      -4.145 -11.798  18.938  1.00  0.00    -0.313 NA
ATOM     16  H   UNL     1      -5.155 -11.692  19.108  1.00  0.00     0.122 HD
BRANCH  14  17
ATOM     17  C   UNL     1      -3.672 -10.781  21.118  1.00  0.00     0.076 C 
ATOM     18  C   UNL     1      -4.315  -9.470  21.600  1.00  0.00     0.022 C 
ATOM     19  C   UNL     1      -4.523 -11.975  21.582  1.00  0.00     0.022 C 
BRANCH  17  20
ATOM     20  C   UNL     1      -2.206 -10.893  21.826  1.00  0.00     0.395 C 
ATOM     21  F   UNL     1      -1.450 -11.791  21.195  1.00  0.00    -0.170 F 
ATOM     22  F   UNL     1      -1.536  -9.747  21.817  1.00  0.00    -0.170 F 
ATOM     23  F   UNL     1      -2.296 -11.267  23.097  1.00  0.00    -0.170 F 
ENDBRANCH  17  20
ENDBRANCH  14  17
ENDBRANCH   5  10
ENDBRANCH   1   3
BRANCH   1  24
ATOM     24  C   UNL     1       0.591  -4.881  16.652  1.00  0.00     0.261 C 
BRANCH  24  25
ATOM     25  O   UNL     1       1.722  -4.664  16.244  1.00  0.00    -0.365 OA
ATOM     26  H   UNL     1       2.371  -4.809  16.977  1.00  0.00     0.214 HD
ENDBRANCH  24  25
BRANCH  24  27
ATOM     27  N   UNL     1       0.204  -4.480  17.916  1.00  0.00    -0.259 NA
ATOM     28  C   UNL     1      -0.976  -3.616  18.084  1.00  0.00     0.104 C 
ATOM     29  C   UNL     1       0.837  -4.824  19.200  1.00  0.00     0.089 C 
ATOM     30  C   UNL     1      -1.124  -3.492  19.609  1.00  0.00     0.025 C 
ATOM     31  C   UNL     1       0.239  -3.826  20.168  1.00  0.00     0.017 C 
BRANCH  28  32
ATOM     32  C   UNL     1      -0.838  -2.253  17.404  1.00  0.00     0.197 C 
BRANCH  32  33
ATOM     33  O   UNL     1      -1.843  -1.629  17.051  1.00  0.00    -0.377 OA
ATOM     34  H   UNL     1      -2.523  -2.264  16.712  1.00  0.00     0.212 HD
ENDBRANCH  32  33
BRANCH  32  35
ATOM     35  N   UNL     1       0.393  -1.833  17.159  1.00  0.00    -0.305 NA
ATOM     36  H   UNL     1       0.853  -1.583  18.045  1.00  0.00     0.121 HD
ATOM     37  H   UNL     1       0.925  -2.584  16.696  1.00  0.00     0.121 HD
ENDBRANCH  32  35
ENDBRANCH  28  32
ENDBRANCH  24  27
ENDBRANCH   1  24
TORSDOF 10
ENDMDL
MODEL 20
REMARK VINA RESULT:    -7.227      2.162      3.361
REMARK INTER + INTRA:         -11.992
REMARK INTER:                 -10.567
REMARK INTRA:                  -1.425
REMARK UNBOUND:                -1.174
REMARK SMILES C[C@H]1N[C@@H](N[C@@H](O)N2CCC[C@H]2[C@@H](N)O)S[C@@H]1[C@H]1CCN[C@H](C(C)(C)C(F)(F)F)C1
REMARK SMILES IDX 5 1 4 3 2 4 17 5 3 6 16 7 1 8 18 10 19 11 30 12 20 13 22 14
REMARK SMILES IDX 21 15 23 17 24 18 25 19 26 20 27 21 28 22 29 23 6 24 7 25
REMARK SMILES IDX 8 27 12 28 9 29 11 30 10 31 13 32 15 33 14 35
REMARK H PARENT 5 2 3 9 21 16 7 26 15 34 14 36 14 37
ROOT
ATOM      1  N   UNL     1       1.215  -5.678  15.032  1.00  0.00    -0.255 NA
ATOM      2  H   UNL     1       1.136  -5.116  15.892  1.00  0.00     0.129 HD
ENDROOT
BRANCH   1   3
ATOM      3  C   UNL     1       0.462  -6.814  15.260  1.00  0.00     0.185 C 
ATOM      4  C   UNL     1      -0.378  -8.810  14.807  1.00  0.00     0.066 C 
ATOM      5  C   UNL     1      -0.945  -8.644  16.066  1.00  0.00     0.069 C 
ATOM      6  N   UNL     1       0.419  -7.771  14.369  1.00  0.00    -0.290 NA
ATOM      7  S   UNL     1      -0.465  -7.085  16.692  1.00  0.00    -0.122 SA
ATOM      8  C   UNL     1      -0.542 -10.003  13.922  1.00  0.00     0.025 C 
ATOM      9  H   UNL     1       1.372  -8.124  14.205  1.00  0.00     0.125 HD
BRANCH   5  10
ATOM     10  C   UNL     1      -1.838  -9.461  16.919  1.00  0.00     0.006 C 
ATOM     11  C   UNL     1      -2.612 -10.485  16.384  1.00  0.00     0.020 C 
ATOM     12  C   UNL     1      -1.890  -9.226  18.289  1.00  0.00     0.024 C 
ATOM     13  C   UNL     1      -3.437 -11.197  17.227  1.00  0.00     0.081 C 
ATOM     14  C   UNL     1      -2.747 -10.018  19.068  1.00  0.00     0.068 C 
ATOM     15  N   UNL     1      -3.524 -10.976  18.546  1.00  0.00    -0.313 NA
ATOM     16  H   UNL     1      -4.502 -10.727  18.753  1.00  0.00     0.122 HD
BRANCH  14  17
ATOM     17  C   UNL     1      -2.806  -9.858  20.607  1.00  0.00     0.076 C 
ATOM     18  C   UNL     1      -2.590  -8.394  21.023  1.00  0.00     0.022 C 
ATOM     19  C   UNL     1      -4.162 -10.353  21.140  1.00  0.00     0.022 C 
BRANCH  17  20
ATOM     20  C   UNL     1      -1.629 -10.742  21.309  1.00  0.00     0.395 C 
ATOM     21  F   UNL     1      -1.875 -10.902  22.609  1.00  0.00    -0.170 F 
ATOM     22  F   UNL     1      -1.509 -11.956  20.785  1.00  0.00    -0.170 F 
ATOM     23  F   UNL     1      -0.438 -10.164  21.196  1.00  0.00    -0.170 F 
ENDBRANCH  17  20
ENDBRANCH  14  17
ENDBRANCH   5  10
ENDBRANCH   1   3
BRANCH   1  24
ATOM     24  C   UNL     1       2.579  -5.682  14.707  1.00  0.00     0.261 C 
BRANCH  24  25
ATOM     25  O   UNL     1       3.386  -6.359  15.328  1.00  0.00    -0.365 OA
ATOM     26  H   UNL     1       4.227  -6.428  14.809  1.00  0.00     0.214 HD
ENDBRANCH  24  25
BRANCH  24  27
ATOM     27  N   UNL     1       2.983  -4.888  13.650  1.00  0.00    -0.259 NA
ATOM     28  C   UNL     1       2.281  -4.971  12.359  1.00  0.00     0.104 C 
ATOM     29  C   UNL     1       4.076  -3.904  13.635  1.00  0.00     0.089 C 
ATOM     30  C   UNL     1       2.951  -3.880  11.508  1.00  0.00     0.025 C 
ATOM     31  C   UNL     1       4.292  -3.637  12.161  1.00  0.00     0.017 C 
BRANCH  28  32
ATOM     32  C   UNL     1       2.367  -6.350  11.703  1.00  0.00     0.197 C 
BRANCH  32  33
ATOM     33  O   UNL     1       3.467  -6.854  11.456  1.00  0.00    -0.377 OA
ATOM     34  H   UNL     1       3.632  -6.822  10.481  1.00  0.00     0.212 HD
ENDBRANCH  32  33
BRANCH  32  35
ATOM     35  N   UNL     1       1.222  -6.917  11.359  1.00  0.00    -0.305 NA
ATOM     36  H   UNL     1       1.317  -7.346  10.428  1.00  0.00     0.121 HD
ATOM     37  H   UNL     1       0.977  -7.643  12.048  1.00  0.00     0.121 HD
ENDBRANCH  32  35
ENDBRANCH  28  32
ENDBRANCH  24  27
ENDBRANCH   1  24
TORSDOF 10
ENDMDL
