MODEL 1
REMARK VINA RESULT:    -9.174      0.000      0.000
REMARK INTER + INTRA:         -11.048
REMARK INTER:                 -10.783
REMARK INTRA:                  -0.265
REMARK UNBOUND:                -0.265
REMARK SMILES CN1C(N)=N[C@](C)(c2cc(NC(=O)c3ccc(F)cn3)ccc2F)CS1(=O)=O
REMARK SMILES IDX 8 1 9 2 10 3 21 4 22 5 23 6 24 7 6 8 25 9 5 10 26 11 3 12
REMARK SMILES IDX 27 13 2 14 28 15 4 16 7 17 1 18 11 21 12 22 13 23 14 25
REMARK SMILES IDX 20 26 15 27 19 28 16 29 17 30 18 31
REMARK H PARENT 4 19 4 20 11 24
ROOT
ATOM      1  C   UNL     1      24.730  12.495  21.030  1.00  0.00     0.018 A 
ATOM      2  C   UNL     1      24.031  12.247  22.211  1.00  0.00     0.035 A 
ATOM      3  C   UNL     1      23.395  11.050  22.453  1.00  0.00     0.042 A 
ATOM      4  C   UNL     1      23.412  10.040  21.500  1.00  0.00     0.029 A 
ATOM      5  C   UNL     1      24.105  10.266  20.323  1.00  0.00     0.042 A 
ATOM      6  C   UNL     1      24.765  11.460  20.108  1.00  0.00     0.129 A 
ATOM      7  F   UNL     1      25.462  11.647  18.958  1.00  0.00    -0.207 F 
ENDROOT
BRANCH   1   8
ATOM      8  C   UNL     1      25.425  13.826  20.794  1.00  0.00     0.105 C 
ATOM      9  C   UNL     1      26.909  13.735  20.517  1.00  0.00     0.195 C 
ATOM     10  N   UNL     1      25.175  14.776  21.877  1.00  0.00    -0.240 NA
ATOM     11  S   UNL     1      27.770  13.079  21.924  1.00  0.00     0.239 S 
ATOM     12  C   UNL     1      25.851  14.742  22.984  1.00  0.00     0.205 C 
ATOM     13  O   UNL     1      29.118  13.616  21.872  1.00  0.00    -0.206 OA
ATOM     14  N   UNL     1      26.951  13.884  23.206  1.00  0.00    -0.243 N 
ATOM     15  O   UNL     1      27.463  11.699  22.135  1.00  0.00    -0.206 OA
ATOM     16  N   UNL     1      25.567  15.566  24.039  1.00  0.00    -0.369 N 
ATOM     17  C   UNL     1      24.785  14.510  19.583  1.00  0.00     0.044 C 
ATOM     18  C   UNL     1      27.630  13.768  24.512  1.00  0.00     0.167 C 
ATOM     19  H   UNL     1      24.817  16.202  23.980  1.00  0.00     0.159 HD
ATOM     20  H   UNL     1      26.113  15.525  24.857  1.00  0.00     0.159 HD
ENDBRANCH   1   8
BRANCH   3  21
ATOM     21  N   UNL     1      22.726  10.932  23.677  1.00  0.00    -0.321 N 
ATOM     22  C   UNL     1      23.217  11.167  24.949  1.00  0.00     0.274 C 
ATOM     23  O   UNL     1      24.388  11.401  25.220  1.00  0.00    -0.267 OA
ATOM     24  H   UNL     1      21.785  10.644  23.626  1.00  0.00     0.170 HD
BRANCH  22  25
ATOM     25  C   UNL     1      22.203  11.159  26.031  1.00  0.00     0.128 A 
ATOM     26  N   UNL     1      22.619  11.560  27.237  1.00  0.00    -0.248 NA
ATOM     27  C   UNL     1      20.905  10.761  25.760  1.00  0.00     0.037 A 
ATOM     28  C   UNL     1      21.719  11.558  28.234  1.00  0.00     0.151 A 
ATOM     29  C   UNL     1      20.000  10.775  26.806  1.00  0.00     0.043 A 
ATOM     30  C   UNL     1      20.409  11.173  28.064  1.00  0.00     0.141 A 
ATOM     31  F   UNL     1      19.563  11.212  29.108  1.00  0.00    -0.205 F 
ENDBRANCH  22  25
ENDBRANCH   3  21
TORSDOF 3
ENDMDL
MODEL 2
REMARK VINA RESULT:    -8.543      2.404      3.798
REMARK INTER + INTRA:         -10.306
REMARK INTER:                 -10.029
REMARK INTRA:                  -0.277
REMARK UNBOUND:                -0.265
REMARK SMILES CN1C(N)=N[C@](C)(c2cc(NC(=O)c3ccc(F)cn3)ccc2F)CS1(=O)=O
REMARK SMILES IDX 8 1 9 2 10 3 21 4 22 5 23 6 24 7 6 8 25 9 5 10 26 11 3 12
REMARK SMILES IDX 27 13 2 14 28 15 4 16 7 17 1 18 11 21 12 22 13 23 14 25
REMARK SMILES IDX 20 26 15 27 19 28 16 29 17 30 18 31
REMARK H PARENT 4 19 4 20 11 24
ROOT
ATOM      1  C   UNL     1      26.906  13.076  22.931  1.00  0.00     0.018 A 
ATOM      2  C   UNL     1      25.832  12.702  23.737  1.00  0.00     0.035 A 
ATOM      3  C   UNL     1      25.650  13.211  25.003  1.00  0.00     0.042 A 
ATOM      4  C   UNL     1      26.561  14.115  25.536  1.00  0.00     0.029 A 
ATOM      5  C   UNL     1      27.631  14.500  24.748  1.00  0.00     0.042 A 
ATOM      6  C   UNL     1      27.783  14.005  23.468  1.00  0.00     0.129 A 
ATOM      7  F   UNL     1      28.826  14.421  22.704  1.00  0.00    -0.207 F 
ENDROOT
BRANCH   1   8
ATOM      8  C   UNL     1      27.078  12.498  21.535  1.00  0.00     0.105 C 
ATOM      9  C   UNL     1      27.132  13.519  20.420  1.00  0.00     0.195 C 
ATOM     10  N   UNL     1      26.072  11.480  21.234  1.00  0.00    -0.240 NA
ATOM     11  S   UNL     1      25.595  14.399  20.301  1.00  0.00     0.239 S 
ATOM     12  C   UNL     1      24.878  11.798  20.839  1.00  0.00     0.205 C 
ATOM     13  O   UNL     1      25.466  14.822  18.918  1.00  0.00    -0.206 OA
ATOM     14  N   UNL     1      24.472  13.119  20.550  1.00  0.00    -0.243 N 
ATOM     15  O   UNL     1      25.391  15.258  21.426  1.00  0.00    -0.206 OA
ATOM     16  N   UNL     1      23.901  10.860  20.640  1.00  0.00    -0.369 N 
ATOM     17  C   UNL     1      28.390  11.709  21.485  1.00  0.00     0.044 C 
ATOM     18  C   UNL     1      23.078  13.479  20.223  1.00  0.00     0.167 C 
ATOM     19  H   UNL     1      24.088   9.909  20.814  1.00  0.00     0.159 HD
ATOM     20  H   UNL     1      23.011  11.136  20.322  1.00  0.00     0.159 HD
ENDBRANCH   1   8
BRANCH   3  21
ATOM     21  N   UNL     1      24.531  12.751  25.710  1.00  0.00    -0.321 N 
ATOM     22  C   UNL     1      23.199  12.818  25.344  1.00  0.00     0.274 C 
ATOM     23  O   UNL     1      22.765  13.424  24.372  1.00  0.00    -0.267 OA
ATOM     24  H   UNL     1      24.717  12.324  26.577  1.00  0.00     0.170 HD
BRANCH  22  25
ATOM     25  C   UNL     1      22.265  12.053  26.206  1.00  0.00     0.128 A 
ATOM     26  N   UNL     1      22.634  11.892  27.481  1.00  0.00    -0.248 NA
ATOM     27  C   UNL     1      21.084  11.561  25.679  1.00  0.00     0.037 A 
ATOM     28  C   UNL     1      21.806  11.199  28.280  1.00  0.00     0.151 A 
ATOM     29  C   UNL     1      20.250  10.856  26.529  1.00  0.00     0.043 A 
ATOM     30  C   UNL     1      20.613  10.665  27.848  1.00  0.00     0.141 A 
ATOM     31  F   UNL     1      19.832   9.996  28.712  1.00  0.00    -0.205 F 
ENDBRANCH  22  25
ENDBRANCH   3  21
TORSDOF 3
ENDMDL
MODEL 3
REMARK VINA RESULT:    -8.420      1.341      1.390
REMARK INTER + INTRA:         -10.162
REMARK INTER:                 -10.003
REMARK INTRA:                  -0.159
REMARK UNBOUND:                -0.265
REMARK SMILES CN1C(N)=N[C@](C)(c2cc(NC(=O)c3ccc(F)cn3)ccc2F)CS1(=O)=O
REMARK SMILES IDX 8 1 9 2 10 3 21 4 22 5 23 6 24 7 6 8 25 9 5 10 26 11 3 12
REMARK SMILES IDX 27 13 2 14 28 15 4 16 7 17 1 18 11 21 12 22 13 23 14 25
REMARK SMILES IDX 20 26 15 27 19 28 16 29 17 30 18 31
REMARK H PARENT 4 19 4 20 11 24
ROOT
ATOM      1  C   UNL     1      25.901  13.084  21.685  1.00  0.00     0.018 A 
ATOM      2  C   UNL     1      25.103  12.818  22.797  1.00  0.00     0.035 A 
ATOM      3  C   UNL     1      24.416  11.635  22.945  1.00  0.00     0.042 A 
ATOM      4  C   UNL     1      24.481  10.657  21.960  1.00  0.00     0.029 A 
ATOM      5  C   UNL     1      25.272  10.902  20.851  1.00  0.00     0.042 A 
ATOM      6  C   UNL     1      25.980  12.081  20.732  1.00  0.00     0.129 A 
ATOM      7  F   UNL     1      26.772  12.284  19.647  1.00  0.00    -0.207 F 
ENDROOT
BRANCH   1   8
ATOM      8  C   UNL     1      26.650  14.401  21.553  1.00  0.00     0.105 C 
ATOM      9  C   UNL     1      28.137  14.271  21.309  1.00  0.00     0.195 C 
ATOM     10  N   UNL     1      26.403  15.289  22.687  1.00  0.00    -0.240 NA
ATOM     11  S   UNL     1      28.934  13.496  22.694  1.00  0.00     0.239 S 
ATOM     12  C   UNL     1      27.046  15.160  23.807  1.00  0.00     0.205 C 
ATOM     13  O   UNL     1      30.301  13.983  22.711  1.00  0.00    -0.206 OA
ATOM     14  N   UNL     1      28.107  14.249  24.003  1.00  0.00    -0.243 N 
ATOM     15  O   UNL     1      28.571  12.118  22.807  1.00  0.00    -0.206 OA
ATOM     16  N   UNL     1      26.762  15.927  24.905  1.00  0.00    -0.369 N 
ATOM     17  C   UNL     1      26.069  15.183  20.372  1.00  0.00     0.044 C 
ATOM     18  C   UNL     1      28.745  14.026  25.316  1.00  0.00     0.167 C 
ATOM     19  H   UNL     1      26.038  16.592  24.867  1.00  0.00     0.159 HD
ATOM     20  H   UNL     1      27.283  15.813  25.733  1.00  0.00     0.159 HD
ENDBRANCH   1   8
BRANCH   3  21
ATOM     21  N   UNL     1      23.648  11.495  24.108  1.00  0.00    -0.321 N 
ATOM     22  C   UNL     1      22.630  12.313  24.565  1.00  0.00     0.274 C 
ATOM     23  O   UNL     1      22.316  13.389  24.074  1.00  0.00    -0.267 OA
ATOM     24  H   UNL     1      23.860  10.716  24.671  1.00  0.00     0.170 HD
BRANCH  22  25
ATOM     25  C   UNL     1      21.864  11.785  25.720  1.00  0.00     0.128 A 
ATOM     26  N   UNL     1      22.465  11.858  26.913  1.00  0.00    -0.248 NA
ATOM     27  C   UNL     1      20.596  11.263  25.529  1.00  0.00     0.037 A 
ATOM     28  C   UNL     1      21.793  11.382  27.974  1.00  0.00     0.151 A 
ATOM     29  C   UNL     1      19.927  10.786  26.643  1.00  0.00     0.043 A 
ATOM     30  C   UNL     1      20.531  10.840  27.884  1.00  0.00     0.141 A 
ATOM     31  F   UNL     1      19.916  10.397  28.994  1.00  0.00    -0.205 F 
ENDBRANCH  22  25
ENDBRANCH   3  21
TORSDOF 3
ENDMDL
MODEL 4
REMARK VINA RESULT:    -8.337      3.605      7.239
REMARK INTER + INTRA:         -10.064
REMARK INTER:                 -10.360
REMARK INTRA:                   0.296
REMARK UNBOUND:                -0.265
REMARK SMILES CN1C(N)=N[C@](C)(c2cc(NC(=O)c3ccc(F)cn3)ccc2F)CS1(=O)=O
REMARK SMILES IDX 8 1 9 2 10 3 21 4 22 5 23 6 24 7 6 8 25 9 5 10 26 11 3 12
REMARK SMILES IDX 27 13 2 14 28 15 4 16 7 17 1 18 11 21 12 22 13 23 14 25
REMARK SMILES IDX 20 26 15 27 19 28 16 29 17 30 18 31
REMARK H PARENT 4 19 4 20 11 24
ROOT
ATOM      1  C   UNL     1      26.117  12.443  21.153  1.00  0.00     0.018 A 
ATOM      2  C   UNL     1      26.978  13.321  21.810  1.00  0.00     0.035 A 
ATOM      3  C   UNL     1      28.318  13.051  21.978  1.00  0.00     0.042 A 
ATOM      4  C   UNL     1      28.860  11.861  21.508  1.00  0.00     0.029 A 
ATOM      5  C   UNL     1      28.021  10.979  20.851  1.00  0.00     0.042 A 
ATOM      6  C   UNL     1      26.686  11.277  20.662  1.00  0.00     0.129 A 
ATOM      7  F   UNL     1      25.890  10.408  19.988  1.00  0.00    -0.207 F 
ENDROOT
BRANCH   1   8
ATOM      8  C   UNL     1      24.642  12.771  20.981  1.00  0.00     0.105 C 
ATOM      9  C   UNL     1      24.056  13.668  22.048  1.00  0.00     0.195 C 
ATOM     10  N   UNL     1      23.826  11.567  20.834  1.00  0.00    -0.240 NA
ATOM     11  S   UNL     1      24.106  12.871  23.634  1.00  0.00     0.239 S 
ATOM     12  C   UNL     1      23.442  10.874  21.861  1.00  0.00     0.205 C 
ATOM     13  O   UNL     1      23.010  13.424  24.409  1.00  0.00    -0.206 OA
ATOM     14  N   UNL     1      23.664  11.265  23.200  1.00  0.00    -0.243 N 
ATOM     15  O   UNL     1      25.445  12.739  24.116  1.00  0.00    -0.206 OA
ATOM     16  N   UNL     1      22.753   9.698  21.733  1.00  0.00    -0.369 N 
ATOM     17  C   UNL     1      24.448  13.483  19.640  1.00  0.00     0.044 C 
ATOM     18  C   UNL     1      23.332  10.407  24.355  1.00  0.00     0.167 C 
ATOM     19  H   UNL     1      22.549   9.342  20.838  1.00  0.00     0.159 HD
ATOM     20  H   UNL     1      22.461   9.207  22.535  1.00  0.00     0.159 HD
ENDBRANCH   1   8
BRANCH   3  21
ATOM     21  N   UNL     1      29.072  14.017  22.657  1.00  0.00    -0.321 N 
ATOM     22  C   UNL     1      29.330  14.104  24.014  1.00  0.00     0.274 C 
ATOM     23  O   UNL     1      28.818  13.400  24.875  1.00  0.00    -0.267 OA
ATOM     24  H   UNL     1      29.469  14.723  22.098  1.00  0.00     0.170 HD
BRANCH  22  25
ATOM     25  C   UNL     1      30.337  15.120  24.403  1.00  0.00     0.128 A 
ATOM     26  N   UNL     1      31.593  14.893  24.004  1.00  0.00    -0.248 NA
ATOM     27  C   UNL     1      29.951  16.232  25.131  1.00  0.00     0.037 A 
ATOM     28  C   UNL     1      32.524  15.798  24.348  1.00  0.00     0.151 A 
ATOM     29  C   UNL     1      30.932  17.150  25.465  1.00  0.00     0.043 A 
ATOM     30  C   UNL     1      32.239  16.932  25.074  1.00  0.00     0.141 A 
ATOM     31  F   UNL     1      33.223  17.799  25.368  1.00  0.00    -0.205 F 
ENDBRANCH  22  25
ENDBRANCH   3  21
TORSDOF 3
ENDMDL
MODEL 5
REMARK VINA RESULT:    -8.321      3.588      8.532
REMARK INTER + INTRA:         -10.045
REMARK INTER:                 -10.389
REMARK INTRA:                   0.344
REMARK UNBOUND:                -0.265
REMARK SMILES CN1C(N)=N[C@](C)(c2cc(NC(=O)c3ccc(F)cn3)ccc2F)CS1(=O)=O
REMARK SMILES IDX 8 1 9 2 10 3 21 4 22 5 23 6 24 7 6 8 25 9 5 10 26 11 3 12
REMARK SMILES IDX 27 13 2 14 28 15 4 16 7 17 1 18 11 21 12 22 13 23 14 25
REMARK SMILES IDX 20 26 15 27 19 28 16 29 17 30 18 31
REMARK H PARENT 4 19 4 20 11 24
ROOT
ATOM      1  C   UNL     1      20.988  12.118  27.345  1.00  0.00     0.018 A 
ATOM      2  C   UNL     1      21.613  12.013  26.104  1.00  0.00     0.035 A 
ATOM      3  C   UNL     1      22.763  12.705  25.797  1.00  0.00     0.042 A 
ATOM      4  C   UNL     1      23.335  13.564  26.727  1.00  0.00     0.029 A 
ATOM      5  C   UNL     1      22.731  13.678  27.966  1.00  0.00     0.042 A 
ATOM      6  C   UNL     1      21.595  12.953  28.271  1.00  0.00     0.129 A 
ATOM      7  F   UNL     1      21.038  13.060  29.504  1.00  0.00    -0.207 F 
ENDROOT
BRANCH   1   8
ATOM      8  C   UNL     1      19.720  11.338  27.654  1.00  0.00     0.105 C 
ATOM      9  C   UNL     1      18.919  10.911  26.444  1.00  0.00     0.195 C 
ATOM     10  N   UNL     1      18.859  12.043  28.603  1.00  0.00    -0.240 NA
ATOM     11  S   UNL     1      18.312  12.328  25.563  1.00  0.00     0.239 S 
ATOM     12  C   UNL     1      18.057  12.989  28.222  1.00  0.00     0.205 C 
ATOM     13  O   UNL     1      17.094  11.907  24.893  1.00  0.00    -0.206 OA
ATOM     14  N   UNL     1      17.847  13.346  26.872  1.00  0.00    -0.243 N 
ATOM     15  O   UNL     1      19.371  13.048  24.929  1.00  0.00    -0.206 OA
ATOM     16  N   UNL     1      17.311  13.716  29.111  1.00  0.00    -0.369 N 
ATOM     17  C   UNL     1      20.096  10.063  28.415  1.00  0.00     0.044 C 
ATOM     18  C   UNL     1      17.028  14.503  26.463  1.00  0.00     0.167 C 
ATOM     19  H   UNL     1      17.387  13.541  30.077  1.00  0.00     0.159 HD
ATOM     20  H   UNL     1      16.699  14.415  28.784  1.00  0.00     0.159 HD
ENDBRANCH   1   8
BRANCH   3  21
ATOM     21  N   UNL     1      23.288  12.513  24.513  1.00  0.00    -0.321 N 
ATOM     22  C   UNL     1      23.155  13.327  23.402  1.00  0.00     0.274 C 
ATOM     23  O   UNL     1      22.430  14.311  23.332  1.00  0.00    -0.267 OA
ATOM     24  H   UNL     1      23.819  11.694  24.384  1.00  0.00     0.170 HD
BRANCH  22  25
ATOM     25  C   UNL     1      24.005  12.960  22.243  1.00  0.00     0.128 A 
ATOM     26  N   UNL     1      25.296  12.729  22.503  1.00  0.00    -0.248 NA
ATOM     27  C   UNL     1      23.446  12.862  20.980  1.00  0.00     0.037 A 
ATOM     28  C   UNL     1      26.085  12.398  21.468  1.00  0.00     0.151 A 
ATOM     29  C   UNL     1      24.284  12.514  19.935  1.00  0.00     0.043 A 
ATOM     30  C   UNL     1      25.624  12.282  20.176  1.00  0.00     0.141 A 
ATOM     31  F   UNL     1      26.474  11.933  19.195  1.00  0.00    -0.205 F 
ENDBRANCH  22  25
ENDBRANCH   3  21
TORSDOF 3
ENDMDL
MODEL 6
REMARK VINA RESULT:    -8.130      2.619      3.120
REMARK INTER + INTRA:          -9.821
REMARK INTER:                 -10.125
REMARK INTRA:                   0.303
REMARK UNBOUND:                -0.265
REMARK SMILES CN1C(N)=N[C@](C)(c2cc(NC(=O)c3ccc(F)cn3)ccc2F)CS1(=O)=O
REMARK SMILES IDX 8 1 9 2 10 3 21 4 22 5 23 6 24 7 6 8 25 9 5 10 26 11 3 12
REMARK SMILES IDX 27 13 2 14 28 15 4 16 7 17 1 18 11 21 12 22 13 23 14 25
REMARK SMILES IDX 20 26 15 27 19 28 16 29 17 30 18 31
REMARK H PARENT 4 19 4 20 11 24
ROOT
ATOM      1  C   UNL     1      26.468  13.593  22.700  1.00  0.00     0.018 A 
ATOM      2  C   UNL     1      25.624  13.025  23.652  1.00  0.00     0.035 A 
ATOM      3  C   UNL     1      24.261  13.217  23.636  1.00  0.00     0.042 A 
ATOM      4  C   UNL     1      23.675  14.018  22.663  1.00  0.00     0.029 A 
ATOM      5  C   UNL     1      24.498  14.588  21.708  1.00  0.00     0.042 A 
ATOM      6  C   UNL     1      25.860  14.360  21.718  1.00  0.00     0.129 A 
ATOM      7  F   UNL     1      26.641  14.907  20.752  1.00  0.00    -0.207 F 
ENDROOT
BRANCH   1   8
ATOM      8  C   UNL     1      27.971  13.360  22.743  1.00  0.00     0.105 C 
ATOM      9  C   UNL     1      28.528  13.021  24.108  1.00  0.00     0.195 C 
ATOM     10  N   UNL     1      28.716  14.473  22.158  1.00  0.00    -0.240 NA
ATOM     11  S   UNL     1      28.302  14.377  25.230  1.00  0.00     0.239 S 
ATOM     12  C   UNL     1      28.973  15.551  22.833  1.00  0.00     0.205 C 
ATOM     13  O   UNL     1      29.367  14.283  26.213  1.00  0.00    -0.206 OA
ATOM     14  N   UNL     1      28.671  15.709  24.204  1.00  0.00    -0.243 N 
ATOM     15  O   UNL     1      26.923  14.569  25.556  1.00  0.00    -0.206 OA
ATOM     16  N   UNL     1      29.592  16.635  22.271  1.00  0.00    -0.369 N 
ATOM     17  C   UNL     1      28.316  12.191  21.815  1.00  0.00     0.044 C 
ATOM     18  C   UNL     1      28.856  16.984  24.926  1.00  0.00     0.167 C 
ATOM     19  H   UNL     1      29.842  16.620  21.319  1.00  0.00     0.159 HD
ATOM     20  H   UNL     1      29.787  17.429  22.819  1.00  0.00     0.159 HD
ENDBRANCH   1   8
BRANCH   3  21
ATOM     21  N   UNL     1      23.527  12.591  24.651  1.00  0.00    -0.321 N 
ATOM     22  C   UNL     1      23.286  13.042  25.937  1.00  0.00     0.274 C 
ATOM     23  O   UNL     1      23.800  14.030  26.445  1.00  0.00    -0.267 OA
ATOM     24  H   UNL     1      23.131  11.720  24.421  1.00  0.00     0.170 HD
BRANCH  22  25
ATOM     25  C   UNL     1      22.296  12.253  26.710  1.00  0.00     0.128 A 
ATOM     26  N   UNL     1      22.622  11.966  27.974  1.00  0.00    -0.248 NA
ATOM     27  C   UNL     1      21.106  11.866  26.116  1.00  0.00     0.037 A 
ATOM     28  C   UNL     1      21.743  11.249  28.692  1.00  0.00     0.151 A 
ATOM     29  C   UNL     1      20.218  11.134  26.884  1.00  0.00     0.043 A 
ATOM     30  C   UNL     1      20.538  10.814  28.189  1.00  0.00     0.141 A 
ATOM     31  F   UNL     1      19.703  10.113  28.975  1.00  0.00    -0.205 F 
ENDBRANCH  22  25
ENDBRANCH   3  21
TORSDOF 3
ENDMDL
MODEL 7
REMARK VINA RESULT:    -7.959      1.875      2.469
REMARK INTER + INTRA:          -9.619
REMARK INTER:                 -10.557
REMARK INTRA:                   0.937
REMARK UNBOUND:                -0.265
REMARK SMILES CN1C(N)=N[C@](C)(c2cc(NC(=O)c3ccc(F)cn3)ccc2F)CS1(=O)=O
REMARK SMILES IDX 8 1 9 2 10 3 21 4 22 5 23 6 24 7 6 8 25 9 5 10 26 11 3 12
REMARK SMILES IDX 27 13 2 14 28 15 4 16 7 17 1 18 11 21 12 22 13 23 14 25
REMARK SMILES IDX 20 26 15 27 19 28 16 29 17 30 18 31
REMARK H PARENT 4 19 4 20 11 24
ROOT
ATOM      1  C   UNL     1      25.611  11.575  21.259  1.00  0.00     0.018 A 
ATOM      2  C   UNL     1      25.101  11.694  22.551  1.00  0.00     0.035 A 
ATOM      3  C   UNL     1      23.848  11.239  22.892  1.00  0.00     0.042 A 
ATOM      4  C   UNL     1      23.026  10.656  21.936  1.00  0.00     0.029 A 
ATOM      5  C   UNL     1      23.518  10.526  20.649  1.00  0.00     0.042 A 
ATOM      6  C   UNL     1      24.790  10.958  20.328  1.00  0.00     0.129 A 
ATOM      7  F   UNL     1      25.259  10.792  19.065  1.00  0.00    -0.207 F 
ENDROOT
BRANCH   1   8
ATOM      8  C   UNL     1      27.002  12.085  20.913  1.00  0.00     0.105 C 
ATOM      9  C   UNL     1      27.708  12.824  22.028  1.00  0.00     0.195 C 
ATOM     10  N   UNL     1      27.003  12.893  19.695  1.00  0.00    -0.240 NA
ATOM     11  S   UNL     1      26.832  14.309  22.449  1.00  0.00     0.239 S 
ATOM     12  C   UNL     1      26.664  14.145  19.707  1.00  0.00     0.205 C 
ATOM     13  O   UNL     1      27.818  15.238  22.971  1.00  0.00    -0.206 OA
ATOM     14  N   UNL     1      26.380  14.871  20.885  1.00  0.00    -0.243 N 
ATOM     15  O   UNL     1      25.583  14.023  23.083  1.00  0.00    -0.206 OA
ATOM     16  N   UNL     1      26.575  14.889  18.561  1.00  0.00    -0.369 N 
ATOM     17  C   UNL     1      27.885  10.893  20.535  1.00  0.00     0.044 C 
ATOM     18  C   UNL     1      25.876  16.258  20.874  1.00  0.00     0.167 C 
ATOM     19  H   UNL     1      26.755  14.471  17.688  1.00  0.00     0.159 HD
ATOM     20  H   UNL     1      26.332  15.842  18.610  1.00  0.00     0.159 HD
ENDBRANCH   1   8
BRANCH   3  21
ATOM     21  N   UNL     1      23.455  11.423  24.224  1.00  0.00    -0.321 N 
ATOM     22  C   UNL     1      22.699  12.450  24.761  1.00  0.00     0.274 C 
ATOM     23  O   UNL     1      22.352  13.458  24.159  1.00  0.00    -0.267 OA
ATOM     24  H   UNL     1      23.754  10.733  24.859  1.00  0.00     0.170 HD
BRANCH  22  25
ATOM     25  C   UNL     1      22.272  12.254  26.168  1.00  0.00     0.128 A 
ATOM     26  N   UNL     1      22.498  13.272  27.004  1.00  0.00    -0.248 NA
ATOM     27  C   UNL     1      21.666  11.068  26.547  1.00  0.00     0.037 A 
ATOM     28  C   UNL     1      22.124  13.115  28.285  1.00  0.00     0.151 A 
ATOM     29  C   UNL     1      21.285  10.939  27.871  1.00  0.00     0.043 A 
ATOM     30  C   UNL     1      21.520  11.972  28.758  1.00  0.00     0.141 A 
ATOM     31  F   UNL     1      21.160  11.896  30.050  1.00  0.00    -0.205 F 
ENDBRANCH  22  25
ENDBRANCH   3  21
TORSDOF 3
ENDMDL
MODEL 8
REMARK VINA RESULT:    -7.738      5.127      8.338
REMARK INTER + INTRA:          -9.361
REMARK INTER:                  -9.471
REMARK INTRA:                   0.111
REMARK UNBOUND:                -0.265
REMARK SMILES CN1C(N)=N[C@](C)(c2cc(NC(=O)c3ccc(F)cn3)ccc2F)CS1(=O)=O
REMARK SMILES IDX 8 1 9 2 10 3 21 4 22 5 23 6 24 7 6 8 25 9 5 10 26 11 3 12
REMARK SMILES IDX 27 13 2 14 28 15 4 16 7 17 1 18 11 21 12 22 13 23 14 25
REMARK SMILES IDX 20 26 15 27 19 28 16 29 17 30 18 31
REMARK H PARENT 4 19 4 20 11 24
ROOT
ATOM      1  C   UNL     1      19.686  11.510  27.272  1.00  0.00     0.018 A 
ATOM      2  C   UNL     1      18.805  10.873  26.399  1.00  0.00     0.035 A 
ATOM      3  C   UNL     1      17.573  11.399  26.083  1.00  0.00     0.042 A 
ATOM      4  C   UNL     1      17.151  12.594  26.652  1.00  0.00     0.029 A 
ATOM      5  C   UNL     1      18.014  13.241  27.518  1.00  0.00     0.042 A 
ATOM      6  C   UNL     1      19.261  12.718  27.801  1.00  0.00     0.129 A 
ATOM      7  F   UNL     1      20.100  13.388  28.632  1.00  0.00    -0.207 F 
ENDROOT
BRANCH   1   8
ATOM      8  C   UNL     1      21.043  10.904  27.599  1.00  0.00     0.105 C 
ATOM      9  C   UNL     1      22.196  11.883  27.607  1.00  0.00     0.195 C 
ATOM     10  N   UNL     1      21.357   9.765  26.738  1.00  0.00    -0.240 NA
ATOM     11  S   UNL     1      22.445  12.572  25.990  1.00  0.00     0.239 S 
ATOM     12  C   UNL     1      21.836   9.926  25.543  1.00  0.00     0.205 C 
ATOM     13  O   UNL     1      23.851  12.925  25.902  1.00  0.00    -0.206 OA
ATOM     14  N   UNL     1      22.207  11.179  25.007  1.00  0.00    -0.243 N 
ATOM     15  O   UNL     1      21.374  13.441  25.616  1.00  0.00    -0.206 OA
ATOM     16  N   UNL     1      22.052   8.873  24.695  1.00  0.00    -0.369 N 
ATOM     17  C   UNL     1      20.979  10.274  28.992  1.00  0.00     0.044 C 
ATOM     18  C   UNL     1      22.633  11.360  23.605  1.00  0.00     0.167 C 
ATOM     19  H   UNL     1      21.825   7.958  24.979  1.00  0.00     0.159 HD
ATOM     20  H   UNL     1      22.434   9.030  23.801  1.00  0.00     0.159 HD
ENDBRANCH   1   8
BRANCH   3  21
ATOM     21  N   UNL     1      16.783  10.657  25.194  1.00  0.00    -0.321 N 
ATOM     22  C   UNL     1      15.430  10.788  24.937  1.00  0.00     0.274 C 
ATOM     23  O   UNL     1      14.661  11.510  25.559  1.00  0.00    -0.267 OA
ATOM     24  H   UNL     1      17.251   9.954  24.688  1.00  0.00     0.170 HD
BRANCH  22  25
ATOM     25  C   UNL     1      14.925   9.997  23.789  1.00  0.00     0.128 A 
ATOM     26  N   UNL     1      13.742  10.369  23.288  1.00  0.00    -0.248 NA
ATOM     27  C   UNL     1      15.676   8.948  23.288  1.00  0.00     0.037 A 
ATOM     28  C   UNL     1      13.262   9.665  22.249  1.00  0.00     0.151 A 
ATOM     29  C   UNL     1      15.158   8.246  22.214  1.00  0.00     0.043 A 
ATOM     30  C   UNL     1      13.932   8.602  21.687  1.00  0.00     0.141 A 
ATOM     31  F   UNL     1      13.393   7.956  20.639  1.00  0.00    -0.205 F 
ENDBRANCH  22  25
ENDBRANCH   3  21
TORSDOF 3
ENDMDL
MODEL 9
REMARK VINA RESULT:    -7.610      2.753      3.405
REMARK INTER + INTRA:          -9.210
REMARK INTER:                  -9.760
REMARK INTRA:                   0.550
REMARK UNBOUND:                -0.265
REMARK SMILES CN1C(N)=N[C@](C)(c2cc(NC(=O)c3ccc(F)cn3)ccc2F)CS1(=O)=O
REMARK SMILES IDX 8 1 9 2 10 3 21 4 22 5 23 6 24 7 6 8 25 9 5 10 26 11 3 12
REMARK SMILES IDX 27 13 2 14 28 15 4 16 7 17 1 18 11 21 12 22 13 23 14 25
REMARK SMILES IDX 20 26 15 27 19 28 16 29 17 30 18 31
REMARK H PARENT 4 19 4 20 11 24
ROOT
ATOM      1  C   UNL     1      26.509  13.736  22.897  1.00  0.00     0.018 A 
ATOM      2  C   UNL     1      25.630  13.485  23.950  1.00  0.00     0.035 A 
ATOM      3  C   UNL     1      24.286  13.769  23.871  1.00  0.00     0.042 A 
ATOM      4  C   UNL     1      23.755  14.348  22.724  1.00  0.00     0.029 A 
ATOM      5  C   UNL     1      24.612  14.601  21.668  1.00  0.00     0.042 A 
ATOM      6  C   UNL     1      25.953  14.281  21.750  1.00  0.00     0.129 A 
ATOM      7  F   UNL     1      26.767  14.513  20.688  1.00  0.00    -0.207 F 
ENDROOT
BRANCH   1   8
ATOM      8  C   UNL     1      27.989  13.408  23.014  1.00  0.00     0.105 C 
ATOM      9  C   UNL     1      28.480  13.157  24.423  1.00  0.00     0.195 C 
ATOM     10  N   UNL     1      28.827  14.412  22.362  1.00  0.00    -0.240 NA
ATOM     11  S   UNL     1      28.316  14.621  25.414  1.00  0.00     0.239 S 
ATOM     12  C   UNL     1      29.138  15.526  22.948  1.00  0.00     0.205 C 
ATOM     13  O   UNL     1      29.342  14.545  26.438  1.00  0.00    -0.206 OA
ATOM     14  N   UNL     1      28.808  15.827  24.288  1.00  0.00    -0.243 N 
ATOM     15  O   UNL     1      26.945  14.932  25.672  1.00  0.00    -0.206 OA
ATOM     16  N   UNL     1      29.847  16.512  22.316  1.00  0.00    -0.369 N 
ATOM     17  C   UNL     1      28.279  12.140  22.206  1.00  0.00     0.044 C 
ATOM     18  C   UNL     1      29.058  17.146  24.902  1.00  0.00     0.167 C 
ATOM     19  H   UNL     1      30.124  16.395  21.379  1.00  0.00     0.159 HD
ATOM     20  H   UNL     1      30.081  17.338  22.799  1.00  0.00     0.159 HD
ENDBRANCH   1   8
BRANCH   3  21
ATOM     21  N   UNL     1      23.513  13.470  25.001  1.00  0.00    -0.321 N 
ATOM     22  C   UNL     1      23.079  12.232  25.439  1.00  0.00     0.274 C 
ATOM     23  O   UNL     1      23.200  11.183  24.819  1.00  0.00    -0.267 OA
ATOM     24  H   UNL     1      23.245  14.240  25.553  1.00  0.00     0.170 HD
BRANCH  22  25
ATOM     25  C   UNL     1      22.457  12.219  26.785  1.00  0.00     0.128 A 
ATOM     26  N   UNL     1      21.699  11.158  27.078  1.00  0.00    -0.248 NA
ATOM     27  C   UNL     1      22.686  13.265  27.662  1.00  0.00     0.037 A 
ATOM     28  C   UNL     1      21.121  11.126  28.290  1.00  0.00     0.151 A 
ATOM     29  C   UNL     1      22.083  13.200  28.906  1.00  0.00     0.043 A 
ATOM     30  C   UNL     1      21.284  12.120  29.228  1.00  0.00     0.141 A 
ATOM     31  F   UNL     1      20.685  12.009  30.426  1.00  0.00    -0.205 F 
ENDBRANCH  22  25
ENDBRANCH   3  21
TORSDOF 3
ENDMDL
MODEL 10
REMARK VINA RESULT:    -7.518      2.861      4.145
REMARK INTER + INTRA:          -9.102
REMARK INTER:                  -9.312
REMARK INTRA:                   0.210
REMARK UNBOUND:                -0.265
REMARK SMILES CN1C(N)=N[C@](C)(c2cc(NC(=O)c3ccc(F)cn3)ccc2F)CS1(=O)=O
REMARK SMILES IDX 8 1 9 2 10 3 21 4 22 5 23 6 24 7 6 8 25 9 5 10 26 11 3 12
REMARK SMILES IDX 27 13 2 14 28 15 4 16 7 17 1 18 11 21 12 22 13 23 14 25
REMARK SMILES IDX 20 26 15 27 19 28 16 29 17 30 18 31
REMARK H PARENT 4 19 4 20 11 24
ROOT
ATOM      1  C   UNL     1      27.455  13.546  23.330  1.00  0.00     0.018 A 
ATOM      2  C   UNL     1      26.220  12.980  23.644  1.00  0.00     0.035 A 
ATOM      3  C   UNL     1      25.588  13.210  24.845  1.00  0.00     0.042 A 
ATOM      4  C   UNL     1      26.184  14.012  25.811  1.00  0.00     0.029 A 
ATOM      5  C   UNL     1      27.409  14.584  25.515  1.00  0.00     0.042 A 
ATOM      6  C   UNL     1      28.016  14.370  24.293  1.00  0.00     0.129 A 
ATOM      7  F   UNL     1      29.203  14.968  24.017  1.00  0.00    -0.207 F 
ENDROOT
BRANCH   1   8
ATOM      8  C   UNL     1      28.126  13.275  21.992  1.00  0.00     0.105 C 
ATOM      9  C   UNL     1      28.236  14.474  21.077  1.00  0.00     0.195 C 
ATOM     10  N   UNL     1      27.504  12.158  21.283  1.00  0.00    -0.240 NA
ATOM     11  S   UNL     1      26.626  15.054  20.606  1.00  0.00     0.239 S 
ATOM     12  C   UNL     1      26.420  12.310  20.587  1.00  0.00     0.205 C 
ATOM     13  O   UNL     1      26.778  15.690  19.309  1.00  0.00    -0.206 OA
ATOM     14  N   UNL     1      25.809  13.561  20.349  1.00  0.00    -0.243 N 
ATOM     15  O   UNL     1      25.933  15.639  21.711  1.00  0.00    -0.206 OA
ATOM     16  N   UNL     1      25.780  11.257  19.992  1.00  0.00    -0.369 N 
ATOM     17  C   UNL     1      29.549  12.771  22.246  1.00  0.00     0.044 C 
ATOM     18  C   UNL     1      24.510  13.705  19.662  1.00  0.00     0.167 C 
ATOM     19  H   UNL     1      26.131  10.343  20.099  1.00  0.00     0.159 HD
ATOM     20  H   UNL     1      24.969  11.413  19.456  1.00  0.00     0.159 HD
ENDBRANCH   1   8
BRANCH   3  21
ATOM     21  N   UNL     1      24.352  12.579  25.035  1.00  0.00    -0.321 N 
ATOM     22  C   UNL     1      23.311  12.965  25.861  1.00  0.00     0.274 C 
ATOM     23  O   UNL     1      23.359  13.878  26.675  1.00  0.00    -0.267 OA
ATOM     24  H   UNL     1      24.206  11.756  24.515  1.00  0.00     0.170 HD
BRANCH  22  25
ATOM     25  C   UNL     1      22.049  12.207  25.684  1.00  0.00     0.128 A 
ATOM     26  N   UNL     1      22.173  10.921  25.339  1.00  0.00    -0.248 NA
ATOM     27  C   UNL     1      20.832  12.834  25.887  1.00  0.00     0.037 A 
ATOM     28  C   UNL     1      21.043  10.215  25.169  1.00  0.00     0.151 A 
ATOM     29  C   UNL     1      19.686  12.078  25.711  1.00  0.00     0.043 A 
ATOM     30  C   UNL     1      19.787  10.751  25.342  1.00  0.00     0.141 A 
ATOM     31  F   UNL     1      18.703   9.976  25.168  1.00  0.00    -0.205 F 
ENDBRANCH  22  25
ENDBRANCH   3  21
TORSDOF 3
ENDMDL
MODEL 11
REMARK VINA RESULT:    -7.518      2.625      3.988
REMARK INTER + INTRA:          -9.101
REMARK INTER:                  -9.703
REMARK INTRA:                   0.602
REMARK UNBOUND:                -0.265
REMARK SMILES CN1C(N)=N[C@](C)(c2cc(NC(=O)c3ccc(F)cn3)ccc2F)CS1(=O)=O
REMARK SMILES IDX 8 1 9 2 10 3 21 4 22 5 23 6 24 7 6 8 25 9 5 10 26 11 3 12
REMARK SMILES IDX 27 13 2 14 28 15 4 16 7 17 1 18 11 21 12 22 13 23 14 25
REMARK SMILES IDX 20 26 15 27 19 28 16 29 17 30 18 31
REMARK H PARENT 4 19 4 20 11 24
ROOT
ATOM      1  C   UNL     1      25.929  14.006  22.859  1.00  0.00     0.018 A 
ATOM      2  C   UNL     1      24.878  13.945  23.773  1.00  0.00     0.035 A 
ATOM      3  C   UNL     1      25.088  13.862  25.131  1.00  0.00     0.042 A 
ATOM      4  C   UNL     1      26.380  13.813  25.641  1.00  0.00     0.029 A 
ATOM      5  C   UNL     1      27.435  13.876  24.748  1.00  0.00     0.042 A 
ATOM      6  C   UNL     1      27.209  13.992  23.391  1.00  0.00     0.129 A 
ATOM      7  F   UNL     1      28.262  14.081  22.538  1.00  0.00    -0.207 F 
ENDROOT
BRANCH   1   8
ATOM      8  C   UNL     1      25.664  14.100  21.364  1.00  0.00     0.105 C 
ATOM      9  C   UNL     1      24.244  13.791  20.944  1.00  0.00     0.195 C 
ATOM     10  N   UNL     1      26.604  13.293  20.588  1.00  0.00    -0.240 NA
ATOM     11  S   UNL     1      23.833  12.105  21.317  1.00  0.00     0.239 S 
ATOM     12  C   UNL     1      26.436  12.016  20.429  1.00  0.00     0.205 C 
ATOM     13  O   UNL     1      22.819  11.705  20.358  1.00  0.00    -0.206 OA
ATOM     14  N   UNL     1      25.295  11.312  20.875  1.00  0.00    -0.243 N 
ATOM     15  O   UNL     1      23.737  11.885  22.726  1.00  0.00    -0.206 OA
ATOM     16  N   UNL     1      27.353  11.234  19.780  1.00  0.00    -0.369 N 
ATOM     17  C   UNL     1      25.970  15.526  20.897  1.00  0.00     0.044 C 
ATOM     18  C   UNL     1      25.175   9.843  20.797  1.00  0.00     0.167 C 
ATOM     19  H   UNL     1      28.183  11.634  19.432  1.00  0.00     0.159 HD
ATOM     20  H   UNL     1      27.184  10.271  19.662  1.00  0.00     0.159 HD
ENDBRANCH   1   8
BRANCH   3  21
ATOM     21  N   UNL     1      23.946  13.804  25.941  1.00  0.00    -0.321 N 
ATOM     22  C   UNL     1      23.213  12.690  26.310  1.00  0.00     0.274 C 
ATOM     23  O   UNL     1      23.379  11.560  25.870  1.00  0.00    -0.267 OA
ATOM     24  H   UNL     1      23.625  14.666  26.292  1.00  0.00     0.170 HD
BRANCH  22  25
ATOM     25  C   UNL     1      22.181  12.928  27.348  1.00  0.00     0.128 A 
ATOM     26  N   UNL     1      20.971  12.410  27.110  1.00  0.00    -0.248 NA
ATOM     27  C   UNL     1      22.500  13.643  28.489  1.00  0.00     0.037 A 
ATOM     28  C   UNL     1      20.018  12.616  28.034  1.00  0.00     0.151 A 
ATOM     29  C   UNL     1      21.499  13.833  29.426  1.00  0.00     0.043 A 
ATOM     30  C   UNL     1      20.237  13.318  29.198  1.00  0.00     0.141 A 
ATOM     31  F   UNL     1      19.236  13.470  30.082  1.00  0.00    -0.205 F 
ENDBRANCH  22  25
ENDBRANCH   3  21
TORSDOF 3
ENDMDL
MODEL 12
REMARK VINA RESULT:    -7.503      3.678      8.274
REMARK INTER + INTRA:          -9.084
REMARK INTER:                  -8.664
REMARK INTRA:                  -0.420
REMARK UNBOUND:                -0.265
REMARK SMILES CN1C(N)=N[C@](C)(c2cc(NC(=O)c3ccc(F)cn3)ccc2F)CS1(=O)=O
REMARK SMILES IDX 8 1 9 2 10 3 21 4 22 5 23 6 24 7 6 8 25 9 5 10 26 11 3 12
REMARK SMILES IDX 27 13 2 14 28 15 4 16 7 17 1 18 11 21 12 22 13 23 14 25
REMARK SMILES IDX 20 26 15 27 19 28 16 29 17 30 18 31
REMARK H PARENT 4 19 4 20 11 24
ROOT
ATOM      1  C   UNL     1      24.938  12.721  21.192  1.00  0.00     0.018 A 
ATOM      2  C   UNL     1      25.750  13.588  20.461  1.00  0.00     0.035 A 
ATOM      3  C   UNL     1      25.261  14.366  19.436  1.00  0.00     0.042 A 
ATOM      4  C   UNL     1      23.921  14.293  19.075  1.00  0.00     0.029 A 
ATOM      5  C   UNL     1      23.100  13.441  19.792  1.00  0.00     0.042 A 
ATOM      6  C   UNL     1      23.598  12.690  20.839  1.00  0.00     0.129 A 
ATOM      7  F   UNL     1      22.765  11.883  21.545  1.00  0.00    -0.207 F 
ENDROOT
BRANCH   1   8
ATOM      8  C   UNL     1      25.508  11.877  22.321  1.00  0.00     0.105 C 
ATOM      9  C   UNL     1      24.742  11.949  23.624  1.00  0.00     0.195 C 
ATOM     10  N   UNL     1      26.923  12.157  22.555  1.00  0.00    -0.240 NA
ATOM     11  S   UNL     1      24.791  13.594  24.290  1.00  0.00     0.239 S 
ATOM     12  C   UNL     1      27.309  13.173  23.264  1.00  0.00     0.205 C 
ATOM     13  O   UNL     1      24.660  13.461  25.730  1.00  0.00    -0.206 OA
ATOM     14  N   UNL     1      26.425  14.024  23.964  1.00  0.00    -0.243 N 
ATOM     15  O   UNL     1      24.031  14.508  23.495  1.00  0.00    -0.206 OA
ATOM     16  N   UNL     1      28.631  13.498  23.417  1.00  0.00    -0.369 N 
ATOM     17  C   UNL     1      25.516  10.409  21.886  1.00  0.00     0.044 C 
ATOM     18  C   UNL     1      26.869  15.247  24.662  1.00  0.00     0.167 C 
ATOM     19  H   UNL     1      29.324  12.962  22.968  1.00  0.00     0.159 HD
ATOM     20  H   UNL     1      28.888  14.265  23.977  1.00  0.00     0.159 HD
ENDBRANCH   1   8
BRANCH   3  21
ATOM     21  N   UNL     1      26.183  15.192  18.780  1.00  0.00    -0.321 N 
ATOM     22  C   UNL     1      26.557  16.484  19.104  1.00  0.00     0.274 C 
ATOM     23  O   UNL     1      26.031  17.175  19.967  1.00  0.00    -0.267 OA
ATOM     24  H   UNL     1      26.621  14.803  17.989  1.00  0.00     0.170 HD
BRANCH  22  25
ATOM     25  C   UNL     1      27.713  17.018  18.343  1.00  0.00     0.128 A 
ATOM     26  N   UNL     1      27.546  17.143  17.022  1.00  0.00    -0.248 NA
ATOM     27  C   UNL     1      28.876  17.365  19.007  1.00  0.00     0.037 A 
ATOM     28  C   UNL     1      28.581  17.620  16.311  1.00  0.00     0.151 A 
ATOM     29  C   UNL     1      29.923  17.860  18.248  1.00  0.00     0.043 A 
ATOM     30  C   UNL     1      29.780  17.987  16.880  1.00  0.00     0.141 A 
ATOM     31  F   UNL     1      30.764  18.471  16.104  1.00  0.00    -0.205 F 
ENDBRANCH  22  25
ENDBRANCH   3  21
TORSDOF 3
ENDMDL
MODEL 13
REMARK VINA RESULT:    -7.268      1.909      2.370
REMARK INTER + INTRA:          -8.807
REMARK INTER:                  -8.983
REMARK INTRA:                   0.176
REMARK UNBOUND:                -0.265
REMARK SMILES CN1C(N)=N[C@](C)(c2cc(NC(=O)c3ccc(F)cn3)ccc2F)CS1(=O)=O
REMARK SMILES IDX 8 1 9 2 10 3 21 4 22 5 23 6 24 7 6 8 25 9 5 10 26 11 3 12
REMARK SMILES IDX 27 13 2 14 28 15 4 16 7 17 1 18 11 21 12 22 13 23 14 25
REMARK SMILES IDX 20 26 15 27 19 28 16 29 17 30 18 31
REMARK H PARENT 4 19 4 20 11 24
ROOT
ATOM      1  C   UNL     1      26.346  14.450  21.085  1.00  0.00     0.018 A 
ATOM      2  C   UNL     1      25.577  13.933  22.127  1.00  0.00     0.035 A 
ATOM      3  C   UNL     1      24.531  13.065  21.909  1.00  0.00     0.042 A 
ATOM      4  C   UNL     1      24.188  12.688  20.617  1.00  0.00     0.029 A 
ATOM      5  C   UNL     1      24.942  13.189  19.571  1.00  0.00     0.042 A 
ATOM      6  C   UNL     1      26.009  14.033  19.807  1.00  0.00     0.129 A 
ATOM      7  F   UNL     1      26.752  14.488  18.765  1.00  0.00    -0.207 F 
ENDROOT
BRANCH   1   8
ATOM      8  C   UNL     1      27.498  15.405  21.359  1.00  0.00     0.105 C 
ATOM      9  C   UNL     1      28.877  14.796  21.240  1.00  0.00     0.195 C 
ATOM     10  N   UNL     1      27.357  16.080  22.648  1.00  0.00    -0.240 NA
ATOM     11  S   UNL     1      29.110  13.528  22.461  1.00  0.00     0.239 S 
ATOM     12  C   UNL     1      27.708  15.509  23.758  1.00  0.00     0.205 C 
ATOM     13  O   UNL     1      30.535  13.474  22.734  1.00  0.00    -0.206 OA
ATOM     14  N   UNL     1      28.356  14.256  23.827  1.00  0.00    -0.243 N 
ATOM     15  O   UNL     1      28.299  12.382  22.192  1.00  0.00    -0.206 OA
ATOM     16  N   UNL     1      27.500  16.094  24.979  1.00  0.00    -0.369 N 
ATOM     17  C   UNL     1      27.430  16.561  20.357  1.00  0.00     0.044 C 
ATOM     18  C   UNL     1      28.636  13.563  25.100  1.00  0.00     0.167 C 
ATOM     19  H   UNL     1      27.054  16.970  25.035  1.00  0.00     0.159 HD
ATOM     20  H   UNL     1      27.796  15.639  25.800  1.00  0.00     0.159 HD
ENDBRANCH   1   8
BRANCH   3  21
ATOM     21  N   UNL     1      23.837  12.622  23.042  1.00  0.00    -0.321 N 
ATOM     22  C   UNL     1      22.754  13.211  23.670  1.00  0.00     0.274 C 
ATOM     23  O   UNL     1      22.298  14.314  23.398  1.00  0.00    -0.267 OA
ATOM     24  H   UNL     1      24.162  11.783  23.443  1.00  0.00     0.170 HD
BRANCH  22  25
ATOM     25  C   UNL     1      22.108  12.389  24.722  1.00  0.00     0.128 A 
ATOM     26  N   UNL     1      21.425  13.056  25.658  1.00  0.00    -0.248 NA
ATOM     27  C   UNL     1      22.223  11.010  24.690  1.00  0.00     0.037 A 
ATOM     28  C   UNL     1      20.834  12.333  26.624  1.00  0.00     0.151 A 
ATOM     29  C   UNL     1      21.599  10.293  25.695  1.00  0.00     0.043 A 
ATOM     30  C   UNL     1      20.897  10.959  26.681  1.00  0.00     0.141 A 
ATOM     31  F   UNL     1      20.267  10.305  27.672  1.00  0.00    -0.205 F 
ENDBRANCH  22  25
ENDBRANCH   3  21
TORSDOF 3
ENDMDL
MODEL 14
REMARK VINA RESULT:    -7.253      2.820      3.816
REMARK INTER + INTRA:          -8.791
REMARK INTER:                  -9.175
REMARK INTRA:                   0.385
REMARK UNBOUND:                -0.265
REMARK SMILES CN1C(N)=N[C@](C)(c2cc(NC(=O)c3ccc(F)cn3)ccc2F)CS1(=O)=O
REMARK SMILES IDX 8 1 9 2 10 3 21 4 22 5 23 6 24 7 6 8 25 9 5 10 26 11 3 12
REMARK SMILES IDX 27 13 2 14 28 15 4 16 7 17 1 18 11 21 12 22 13 23 14 25
REMARK SMILES IDX 20 26 15 27 19 28 16 29 17 30 18 31
REMARK H PARENT 4 19 4 20 11 24
ROOT
ATOM      1  C   UNL     1      26.732  14.066  23.225  1.00  0.00     0.018 A 
ATOM      2  C   UNL     1      25.405  13.680  23.408  1.00  0.00     0.035 A 
ATOM      3  C   UNL     1      24.840  13.558  24.657  1.00  0.00     0.042 A 
ATOM      4  C   UNL     1      25.595  13.798  25.798  1.00  0.00     0.029 A 
ATOM      5  C   UNL     1      26.914  14.185  25.635  1.00  0.00     0.042 A 
ATOM      6  C   UNL     1      27.459  14.335  24.375  1.00  0.00     0.129 A 
ATOM      7  F   UNL     1      28.746  14.744  24.242  1.00  0.00    -0.207 F 
ENDROOT
BRANCH   1   8
ATOM      8  C   UNL     1      27.327  14.195  21.832  1.00  0.00     0.105 C 
ATOM      9  C   UNL     1      26.609  13.414  20.753  1.00  0.00     0.195 C 
ATOM     10  N   UNL     1      28.755  13.880  21.813  1.00  0.00    -0.240 NA
ATOM     11  S   UNL     1      26.708  11.671  21.070  1.00  0.00     0.239 S 
ATOM     12  C   UNL     1      29.182  12.656  21.765  1.00  0.00     0.205 C 
ATOM     13  O   UNL     1      26.626  11.010  19.780  1.00  0.00    -0.206 OA
ATOM     14  N   UNL     1      28.337  11.534  21.610  1.00  0.00    -0.243 N 
ATOM     15  O   UNL     1      25.936  11.298  22.214  1.00  0.00    -0.206 OA
ATOM     16  N   UNL     1      30.513  12.343  21.836  1.00  0.00    -0.369 N 
ATOM     17  C   UNL     1      27.296  15.668  21.415  1.00  0.00     0.044 C 
ATOM     18  C   UNL     1      28.826  10.143  21.682  1.00  0.00     0.167 C 
ATOM     19  H   UNL     1      31.181  13.058  21.945  1.00  0.00     0.159 HD
ATOM     20  H   UNL     1      30.802  11.404  21.779  1.00  0.00     0.159 HD
ENDBRANCH   1   8
BRANCH   3  21
ATOM     21  N   UNL     1      23.497  13.161  24.702  1.00  0.00    -0.321 N 
ATOM     22  C   UNL     1      22.977  11.940  25.096  1.00  0.00     0.274 C 
ATOM     23  O   UNL     1      23.638  10.943  25.354  1.00  0.00    -0.267 OA
ATOM     24  H   UNL     1      22.840  13.836  24.418  1.00  0.00     0.170 HD
BRANCH  22  25
ATOM     25  C   UNL     1      21.501  11.896  25.235  1.00  0.00     0.128 A 
ATOM     26  N   UNL     1      20.862  13.067  25.147  1.00  0.00    -0.248 NA
ATOM     27  C   UNL     1      20.862  10.685  25.434  1.00  0.00     0.037 A 
ATOM     28  C   UNL     1      19.525  13.053  25.274  1.00  0.00     0.151 A 
ATOM     29  C   UNL     1      19.483  10.702  25.555  1.00  0.00     0.043 A 
ATOM     30  C   UNL     1      18.801  11.900  25.480  1.00  0.00     0.141 A 
ATOM     31  F   UNL     1      17.462  11.965  25.582  1.00  0.00    -0.205 F 
ENDBRANCH  22  25
ENDBRANCH   3  21
TORSDOF 3
ENDMDL
MODEL 15
REMARK VINA RESULT:    -7.213      2.835      3.901
REMARK INTER + INTRA:          -8.743
REMARK INTER:                  -9.114
REMARK INTRA:                   0.371
REMARK UNBOUND:                -0.265
REMARK SMILES CN1C(N)=N[C@](C)(c2cc(NC(=O)c3ccc(F)cn3)ccc2F)CS1(=O)=O
REMARK SMILES IDX 8 1 9 2 10 3 21 4 22 5 23 6 24 7 6 8 25 9 5 10 26 11 3 12
REMARK SMILES IDX 27 13 2 14 28 15 4 16 7 17 1 18 11 21 12 22 13 23 14 25
REMARK SMILES IDX 20 26 15 27 19 28 16 29 17 30 18 31
REMARK H PARENT 4 19 4 20 11 24
ROOT
ATOM      1  C   UNL     1      27.468  14.096  22.579  1.00  0.00     0.018 A 
ATOM      2  C   UNL     1      26.325  13.680  23.261  1.00  0.00     0.035 A 
ATOM      3  C   UNL     1      25.060  14.072  22.886  1.00  0.00     0.042 A 
ATOM      4  C   UNL     1      24.880  14.929  21.807  1.00  0.00     0.029 A 
ATOM      5  C   UNL     1      26.003  15.349  21.116  1.00  0.00     0.042 A 
ATOM      6  C   UNL     1      27.264  14.923  21.485  1.00  0.00     0.129 A 
ATOM      7  F   UNL     1      28.347  15.326  20.772  1.00  0.00    -0.207 F 
ENDROOT
BRANCH   1   8
ATOM      8  C   UNL     1      28.852  13.644  23.017  1.00  0.00     0.105 C 
ATOM      9  C   UNL     1      28.981  13.305  24.486  1.00  0.00     0.195 C 
ATOM     10  N   UNL     1      29.889  14.597  22.629  1.00  0.00    -0.240 NA
ATOM     11  S   UNL     1      28.695  14.742  25.488  1.00  0.00     0.239 S 
ATOM     12  C   UNL     1      30.133  15.662  23.329  1.00  0.00     0.205 C 
ATOM     13  O   UNL     1      29.445  14.547  26.715  1.00  0.00    -0.206 OA
ATOM     14  N   UNL     1      29.521  15.943  24.571  1.00  0.00    -0.243 N 
ATOM     15  O   UNL     1      27.327  15.156  25.439  1.00  0.00    -0.206 OA
ATOM     16  N   UNL     1      31.040  16.607  22.930  1.00  0.00    -0.369 N 
ATOM     17  C   UNL     1      29.232  12.385  22.232  1.00  0.00     0.044 C 
ATOM     18  C   UNL     1      29.716  17.215  25.294  1.00  0.00     0.167 C 
ATOM     19  H   UNL     1      31.519  16.500  22.077  1.00  0.00     0.159 HD
ATOM     20  H   UNL     1      31.213  17.394  23.497  1.00  0.00     0.159 HD
ENDBRANCH   1   8
BRANCH   3  21
ATOM     21  N   UNL     1      23.997  13.585  23.657  1.00  0.00    -0.321 N 
ATOM     22  C   UNL     1      23.118  12.560  23.355  1.00  0.00     0.274 C 
ATOM     23  O   UNL     1      23.051  11.984  22.277  1.00  0.00    -0.267 OA
ATOM     24  H   UNL     1      23.858  14.028  24.525  1.00  0.00     0.170 HD
BRANCH  22  25
ATOM     25  C   UNL     1      22.232  12.137  24.467  1.00  0.00     0.128 A 
ATOM     26  N   UNL     1      21.325  13.030  24.875  1.00  0.00    -0.248 NA
ATOM     27  C   UNL     1      22.366  10.873  25.015  1.00  0.00     0.037 A 
ATOM     28  C   UNL     1      20.514  12.671  25.884  1.00  0.00     0.151 A 
ATOM     29  C   UNL     1      21.513  10.530  26.049  1.00  0.00     0.043 A 
ATOM     30  C   UNL     1      20.575  11.440  26.496  1.00  0.00     0.141 A 
ATOM     31  F   UNL     1      19.718  11.149  27.491  1.00  0.00    -0.205 F 
ENDBRANCH  22  25
ENDBRANCH   3  21
TORSDOF 3
ENDMDL
MODEL 16
REMARK VINA RESULT:    -7.070      4.707      9.150
REMARK INTER + INTRA:          -8.575
REMARK INTER:                  -8.984
REMARK INTRA:                   0.409
REMARK UNBOUND:                -0.265
REMARK SMILES CN1C(N)=N[C@](C)(c2cc(NC(=O)c3ccc(F)cn3)ccc2F)CS1(=O)=O
REMARK SMILES IDX 8 1 9 2 10 3 21 4 22 5 23 6 24 7 6 8 25 9 5 10 26 11 3 12
REMARK SMILES IDX 27 13 2 14 28 15 4 16 7 17 1 18 11 21 12 22 13 23 14 25
REMARK SMILES IDX 20 26 15 27 19 28 16 29 17 30 18 31
REMARK H PARENT 4 19 4 20 11 24
ROOT
ATOM      1  C   UNL     1      18.534  12.012  26.350  1.00  0.00     0.018 A 
ATOM      2  C   UNL     1      19.596  12.447  25.560  1.00  0.00     0.035 A 
ATOM      3  C   UNL     1      20.852  12.675  26.075  1.00  0.00     0.042 A 
ATOM      4  C   UNL     1      21.100  12.495  27.430  1.00  0.00     0.029 A 
ATOM      5  C   UNL     1      20.058  12.059  28.229  1.00  0.00     0.042 A 
ATOM      6  C   UNL     1      18.811  11.804  27.693  1.00  0.00     0.129 A 
ATOM      7  F   UNL     1      17.813  11.350  28.494  1.00  0.00    -0.207 F 
ENDROOT
BRANCH   1   8
ATOM      8  C   UNL     1      17.158  11.766  25.751  1.00  0.00     0.105 C 
ATOM      9  C   UNL     1      16.700  12.804  24.750  1.00  0.00     0.195 C 
ATOM     10  N   UNL     1      16.137  11.576  26.780  1.00  0.00    -0.240 NA
ATOM     11  S   UNL     1      16.520  14.389  25.529  1.00  0.00     0.239 S 
ATOM     12  C   UNL     1      15.578  12.582  27.379  1.00  0.00     0.205 C 
ATOM     13  O   UNL     1      15.511  15.109  24.773  1.00  0.00    -0.206 OA
ATOM     14  N   UNL     1      15.804  13.931  27.027  1.00  0.00    -0.243 N 
ATOM     15  O   UNL     1      17.784  14.938  25.908  1.00  0.00    -0.206 OA
ATOM     16  N   UNL     1      14.686  12.418  28.405  1.00  0.00    -0.369 N 
ATOM     17  C   UNL     1      17.168  10.418  25.025  1.00  0.00     0.044 C 
ATOM     18  C   UNL     1      15.259  15.067  27.797  1.00  0.00     0.167 C 
ATOM     19  H   UNL     1      14.463  11.513  28.723  1.00  0.00     0.159 HD
ATOM     20  H   UNL     1      14.268  13.204  28.825  1.00  0.00     0.159 HD
ENDBRANCH   1   8
BRANCH   3  21
ATOM     21  N   UNL     1      21.831  13.113  25.173  1.00  0.00    -0.321 N 
ATOM     22  C   UNL     1      22.558  12.363  24.266  1.00  0.00     0.274 C 
ATOM     23  O   UNL     1      22.550  11.141  24.196  1.00  0.00    -0.267 OA
ATOM     24  H   UNL     1      22.025  14.078  25.186  1.00  0.00     0.170 HD
BRANCH  22  25
ATOM     25  C   UNL     1      23.368  13.147  23.302  1.00  0.00     0.128 A 
ATOM     26  N   UNL     1      24.037  14.191  23.800  1.00  0.00    -0.248 NA
ATOM     27  C   UNL     1      23.407  12.774  21.969  1.00  0.00     0.037 A 
ATOM     28  C   UNL     1      24.774  14.918  22.945  1.00  0.00     0.151 A 
ATOM     29  C   UNL     1      24.180  13.539  21.114  1.00  0.00     0.043 A 
ATOM     30  C   UNL     1      24.872  14.631  21.603  1.00  0.00     0.141 A 
ATOM     31  F   UNL     1      25.642  15.397  20.812  1.00  0.00    -0.205 F 
ENDBRANCH  22  25
ENDBRANCH   3  21
TORSDOF 3
ENDMDL
MODEL 17
REMARK VINA RESULT:    -7.029      3.628      8.176
REMARK INTER + INTRA:          -8.527
REMARK INTER:                  -8.490
REMARK INTRA:                  -0.038
REMARK UNBOUND:                -0.265
REMARK SMILES CN1C(N)=N[C@](C)(c2cc(NC(=O)c3ccc(F)cn3)ccc2F)CS1(=O)=O
REMARK SMILES IDX 8 1 9 2 10 3 21 4 22 5 23 6 24 7 6 8 25 9 5 10 26 11 3 12
REMARK SMILES IDX 27 13 2 14 28 15 4 16 7 17 1 18 11 21 12 22 13 23 14 25
REMARK SMILES IDX 20 26 15 27 19 28 16 29 17 30 18 31
REMARK H PARENT 4 19 4 20 11 24
ROOT
ATOM      1  C   UNL     1      25.007  13.426  23.353  1.00  0.00     0.018 A 
ATOM      2  C   UNL     1      25.927  14.203  22.652  1.00  0.00     0.035 A 
ATOM      3  C   UNL     1      27.132  14.587  23.195  1.00  0.00     0.042 A 
ATOM      4  C   UNL     1      27.466  14.223  24.494  1.00  0.00     0.029 A 
ATOM      5  C   UNL     1      26.566  13.448  25.203  1.00  0.00     0.042 A 
ATOM      6  C   UNL     1      25.374  13.044  24.634  1.00  0.00     0.129 A 
ATOM      7  F   UNL     1      24.521  12.259  25.341  1.00  0.00    -0.207 F 
ENDROOT
BRANCH   1   8
ATOM      8  C   UNL     1      23.684  13.016  22.723  1.00  0.00     0.105 C 
ATOM      9  C   UNL     1      23.517  11.530  22.497  1.00  0.00     0.195 C 
ATOM     10  N   UNL     1      23.416  13.745  21.485  1.00  0.00    -0.240 NA
ATOM     11  S   UNL     1      24.716  10.933  21.332  1.00  0.00     0.239 S 
ATOM     12  C   UNL     1      23.943  13.387  20.355  1.00  0.00     0.205 C 
ATOM     13  O   UNL     1      24.125   9.776  20.685  1.00  0.00    -0.206 OA
ATOM     14  N   UNL     1      24.714  12.216  20.184  1.00  0.00    -0.243 N 
ATOM     15  O   UNL     1      26.038  10.962  21.875  1.00  0.00    -0.206 OA
ATOM     16  N   UNL     1      23.771  14.112  19.206  1.00  0.00    -0.369 N 
ATOM     17  C   UNL     1      22.541  13.462  23.639  1.00  0.00     0.044 C 
ATOM     18  C   UNL     1      25.409  11.887  18.923  1.00  0.00     0.167 C 
ATOM     19  H   UNL     1      23.248  14.946  19.224  1.00  0.00     0.159 HD
ATOM     20  H   UNL     1      24.171  13.800  18.362  1.00  0.00     0.159 HD
ENDBRANCH   1   8
BRANCH   3  21
ATOM     21  N   UNL     1      27.965  15.370  22.385  1.00  0.00    -0.321 N 
ATOM     22  C   UNL     1      29.333  15.261  22.204  1.00  0.00     0.274 C 
ATOM     23  O   UNL     1      30.071  14.521  22.841  1.00  0.00    -0.267 OA
ATOM     24  H   UNL     1      27.521  16.089  21.881  1.00  0.00     0.170 HD
BRANCH  22  25
ATOM     25  C   UNL     1      29.896  16.101  21.119  1.00  0.00     0.128 A 
ATOM     26  N   UNL     1      31.229  16.107  21.006  1.00  0.00    -0.248 NA
ATOM     27  C   UNL     1      29.051  16.813  20.287  1.00  0.00     0.037 A 
ATOM     28  C   UNL     1      31.763  16.863  20.033  1.00  0.00     0.151 A 
ATOM     29  C   UNL     1      29.631  17.579  19.290  1.00  0.00     0.043 A 
ATOM     30  C   UNL     1      31.006  17.612  19.160  1.00  0.00     0.141 A 
ATOM     31  F   UNL     1      31.613  18.333  18.202  1.00  0.00    -0.205 F 
ENDBRANCH  22  25
ENDBRANCH   3  21
TORSDOF 3
ENDMDL
MODEL 18
REMARK VINA RESULT:    -7.016      4.130      9.126
REMARK INTER + INTRA:          -8.512
REMARK INTER:                  -8.343
REMARK INTRA:                  -0.169
REMARK UNBOUND:                -0.265
REMARK SMILES CN1C(N)=N[C@](C)(c2cc(NC(=O)c3ccc(F)cn3)ccc2F)CS1(=O)=O
REMARK SMILES IDX 8 1 9 2 10 3 21 4 22 5 23 6 24 7 6 8 25 9 5 10 26 11 3 12
REMARK SMILES IDX 27 13 2 14 28 15 4 16 7 17 1 18 11 21 12 22 13 23 14 25
REMARK SMILES IDX 20 26 15 27 19 28 16 29 17 30 18 31
REMARK H PARENT 4 19 4 20 11 24
ROOT
ATOM      1  C   UNL     1      26.383  14.437  22.666  1.00  0.00     0.018 A 
ATOM      2  C   UNL     1      26.667  15.080  21.462  1.00  0.00     0.035 A 
ATOM      3  C   UNL     1      27.902  15.624  21.191  1.00  0.00     0.042 A 
ATOM      4  C   UNL     1      28.918  15.567  22.137  1.00  0.00     0.029 A 
ATOM      5  C   UNL     1      28.655  14.930  23.337  1.00  0.00     0.042 A 
ATOM      6  C   UNL     1      27.421  14.361  23.582  1.00  0.00     0.129 A 
ATOM      7  F   UNL     1      27.198  13.715  24.755  1.00  0.00    -0.207 F 
ENDROOT
BRANCH   1   8
ATOM      8  C   UNL     1      25.008  13.844  22.934  1.00  0.00     0.105 C 
ATOM      9  C   UNL     1      24.996  12.357  23.214  1.00  0.00     0.195 C 
ATOM     10  N   UNL     1      24.056  14.163  21.872  1.00  0.00    -0.240 NA
ATOM     11  S   UNL     1      25.554  11.448  21.795  1.00  0.00     0.239 S 
ATOM     12  C   UNL     1      24.015  13.484  20.767  1.00  0.00     0.205 C 
ATOM     13  O   UNL     1      24.920  10.143  21.864  1.00  0.00    -0.206 OA
ATOM     14  N   UNL     1      24.784  12.323  20.529  1.00  0.00    -0.243 N 
ATOM     15  O   UNL     1      26.948  11.651  21.553  1.00  0.00    -0.206 OA
ATOM     16  N   UNL     1      23.191  13.827  19.729  1.00  0.00    -0.369 N 
ATOM     17  C   UNL     1      24.401  14.535  24.158  1.00  0.00     0.044 C 
ATOM     18  C   UNL     1      24.819  11.635  19.223  1.00  0.00     0.167 C 
ATOM     19  H   UNL     1      22.614  14.622  19.800  1.00  0.00     0.159 HD
ATOM     20  H   UNL     1      23.173  13.277  18.912  1.00  0.00     0.159 HD
ENDBRANCH   1   8
BRANCH   3  21
ATOM     21  N   UNL     1      28.055  16.244  19.945  1.00  0.00    -0.321 N 
ATOM     22  C   UNL     1      28.592  17.488  19.667  1.00  0.00     0.274 C 
ATOM     23  O   UNL     1      28.911  18.321  20.505  1.00  0.00    -0.267 OA
ATOM     24  H   UNL     1      27.741  15.728  19.167  1.00  0.00     0.170 HD
BRANCH  22  25
ATOM     25  C   UNL     1      28.811  17.777  18.229  1.00  0.00     0.128 A 
ATOM     26  N   UNL     1      27.715  17.878  17.470  1.00  0.00    -0.248 NA
ATOM     27  C   UNL     1      30.098  17.936  17.744  1.00  0.00     0.037 A 
ATOM     28  C   UNL     1      27.888  18.134  16.163  1.00  0.00     0.151 A 
ATOM     29  C   UNL     1      30.244  18.205  16.394  1.00  0.00     0.043 A 
ATOM     30  C   UNL     1      29.127  18.302  15.587  1.00  0.00     0.141 A 
ATOM     31  F   UNL     1      29.219  18.572  14.274  1.00  0.00    -0.205 F 
ENDBRANCH  22  25
ENDBRANCH   3  21
TORSDOF 3
ENDMDL
MODEL 19
REMARK VINA RESULT:    -6.992      3.590      7.106
REMARK INTER + INTRA:          -8.483
REMARK INTER:                  -8.058
REMARK INTRA:                  -0.426
REMARK UNBOUND:                -0.265
REMARK SMILES CN1C(N)=N[C@](C)(c2cc(NC(=O)c3ccc(F)cn3)ccc2F)CS1(=O)=O
REMARK SMILES IDX 8 1 9 2 10 3 21 4 22 5 23 6 24 7 6 8 25 9 5 10 26 11 3 12
REMARK SMILES IDX 27 13 2 14 28 15 4 16 7 17 1 18 11 21 12 22 13 23 14 25
REMARK SMILES IDX 20 26 15 27 19 28 16 29 17 30 18 31
REMARK H PARENT 4 19 4 20 11 24
ROOT
ATOM      1  C   UNL     1      24.401  13.358  22.892  1.00  0.00     0.018 A 
ATOM      2  C   UNL     1      25.664  13.888  23.151  1.00  0.00     0.035 A 
ATOM      3  C   UNL     1      26.190  13.950  24.422  1.00  0.00     0.042 A 
ATOM      4  C   UNL     1      25.455  13.497  25.510  1.00  0.00     0.029 A 
ATOM      5  C   UNL     1      24.200  12.965  25.271  1.00  0.00     0.042 A 
ATOM      6  C   UNL     1      23.699  12.880  23.988  1.00  0.00     0.129 A 
ATOM      7  F   UNL     1      22.477  12.326  23.777  1.00  0.00    -0.207 F 
ENDROOT
BRANCH   1   8
ATOM      8  C   UNL     1      23.848  13.301  21.476  1.00  0.00     0.105 C 
ATOM      9  C   UNL     1      23.350  11.942  21.037  1.00  0.00     0.195 C 
ATOM     10  N   UNL     1      24.796  13.830  20.496  1.00  0.00    -0.240 NA
ATOM     11  S   UNL     1      24.683  10.770  20.994  1.00  0.00     0.239 S 
ATOM     12  C   UNL     1      25.768  13.108  20.031  1.00  0.00     0.205 C 
ATOM     13  O   UNL     1      24.327   9.776  19.997  1.00  0.00    -0.206 OA
ATOM     14  N   UNL     1      25.940  11.737  20.324  1.00  0.00    -0.243 N 
ATOM     15  O   UNL     1      25.154  10.459  22.307  1.00  0.00    -0.206 OA
ATOM     16  N   UNL     1      26.714  13.617  19.181  1.00  0.00    -0.369 N 
ATOM     17  C   UNL     1      22.667  14.269  21.367  1.00  0.00     0.044 C 
ATOM     18  C   UNL     1      27.118  10.962  19.888  1.00  0.00     0.167 C 
ATOM     19  H   UNL     1      26.679  14.565  18.917  1.00  0.00     0.159 HD
ATOM     20  H   UNL     1      27.428  13.035  18.833  1.00  0.00     0.159 HD
ENDBRANCH   1   8
BRANCH   3  21
ATOM     21  N   UNL     1      27.469  14.509  24.545  1.00  0.00    -0.321 N 
ATOM     22  C   UNL     1      28.694  13.873  24.454  1.00  0.00     0.274 C 
ATOM     23  O   UNL     1      28.855  12.662  24.375  1.00  0.00    -0.267 OA
ATOM     24  H   UNL     1      27.499  15.477  24.718  1.00  0.00     0.170 HD
BRANCH  22  25
ATOM     25  C   UNL     1      29.873  14.772  24.418  1.00  0.00     0.128 A 
ATOM     26  N   UNL     1      30.377  15.042  23.209  1.00  0.00    -0.248 NA
ATOM     27  C   UNL     1      30.384  15.289  25.596  1.00  0.00     0.037 A 
ATOM     28  C   UNL     1      31.447  15.851  23.152  1.00  0.00     0.151 A 
ATOM     29  C   UNL     1      31.484  16.124  25.504  1.00  0.00     0.043 A 
ATOM     30  C   UNL     1      32.030  16.408  24.267  1.00  0.00     0.141 A 
ATOM     31  F   UNL     1      33.091  17.221  24.128  1.00  0.00    -0.205 F 
ENDBRANCH  22  25
ENDBRANCH   3  21
TORSDOF 3
ENDMDL
MODEL 20
REMARK VINA RESULT:    -6.985      4.676      8.808
REMARK INTER + INTRA:          -8.476
REMARK INTER:                  -8.098
REMARK INTRA:                  -0.378
REMARK UNBOUND:                -0.265
REMARK SMILES CN1C(N)=N[C@](C)(c2cc(NC(=O)c3ccc(F)cn3)ccc2F)CS1(=O)=O
REMARK SMILES IDX 8 1 9 2 10 3 21 4 22 5 23 6 24 7 6 8 25 9 5 10 26 11 3 12
REMARK SMILES IDX 27 13 2 14 28 15 4 16 7 17 1 18 11 21 12 22 13 23 14 25
REMARK SMILES IDX 20 26 15 27 19 28 16 29 17 30 18 31
REMARK H PARENT 4 19 4 20 11 24
ROOT
ATOM      1  C   UNL     1      26.973  14.510  20.615  1.00  0.00     0.018 A 
ATOM      2  C   UNL     1      28.185  15.106  20.961  1.00  0.00     0.035 A 
ATOM      3  C   UNL     1      28.501  16.396  20.599  1.00  0.00     0.042 A 
ATOM      4  C   UNL     1      27.615  17.151  19.842  1.00  0.00     0.029 A 
ATOM      5  C   UNL     1      26.406  16.577  19.491  1.00  0.00     0.042 A 
ATOM      6  C   UNL     1      26.088  15.294  19.890  1.00  0.00     0.129 A 
ATOM      7  F   UNL     1      24.883  14.764  19.557  1.00  0.00    -0.207 F 
ENDROOT
BRANCH   1   8
ATOM      8  C   UNL     1      26.651  13.084  21.033  1.00  0.00     0.105 C 
ATOM      9  C   UNL     1      25.359  12.918  21.802  1.00  0.00     0.195 C 
ATOM     10  N   UNL     1      27.755  12.465  21.765  1.00  0.00    -0.240 NA
ATOM     11  S   UNL     1      25.437  13.781  23.351  1.00  0.00     0.239 S 
ATOM     12  C   UNL     1      27.939  12.681  23.031  1.00  0.00     0.205 C 
ATOM     13  O   UNL     1      24.546  13.082  24.260  1.00  0.00    -0.206 OA
ATOM     14  N   UNL     1      27.048  13.421  23.840  1.00  0.00    -0.243 N 
ATOM     15  O   UNL     1      25.444  15.199  23.166  1.00  0.00    -0.206 OA
ATOM     16  N   UNL     1      29.017  12.179  23.709  1.00  0.00    -0.369 N 
ATOM     17  C   UNL     1      26.541  12.214  19.778  1.00  0.00     0.044 C 
ATOM     18  C   UNL     1      27.333  13.763  25.247  1.00  0.00     0.167 C 
ATOM     19  H   UNL     1      29.695  11.648  23.231  1.00  0.00     0.159 HD
ATOM     20  H   UNL     1      29.115  12.348  24.674  1.00  0.00     0.159 HD
ENDBRANCH   1   8
BRANCH   3  21
ATOM     21  N   UNL     1      29.753  16.874  21.009  1.00  0.00    -0.321 N 
ATOM     22  C   UNL     1      30.194  17.128  22.296  1.00  0.00     0.274 C 
ATOM     23  O   UNL     1      29.494  17.093  23.300  1.00  0.00    -0.267 OA
ATOM     24  H   UNL     1      30.401  17.051  20.290  1.00  0.00     0.170 HD
BRANCH  22  25
ATOM     25  C   UNL     1      31.641  17.426  22.422  1.00  0.00     0.128 A 
ATOM     26  N   UNL     1      32.328  17.525  21.279  1.00  0.00    -0.248 NA
ATOM     27  C   UNL     1      32.205  17.594  23.675  1.00  0.00     0.037 A 
ATOM     28  C   UNL     1      33.641  17.791  21.368  1.00  0.00     0.151 A 
ATOM     29  C   UNL     1      33.559  17.873  23.734  1.00  0.00     0.043 A 
ATOM     30  C   UNL     1      34.293  17.969  22.567  1.00  0.00     0.141 A 
ATOM     31  F   UNL     1      35.608  18.247  22.575  1.00  0.00    -0.205 F 
ENDBRANCH  22  25
ENDBRANCH   3  21
TORSDOF 3
ENDMDL
