MODEL 1
REMARK VINA RESULT:   -12.872      0.000      0.000
REMARK INTER + INTRA:         -18.426
REMARK INTER:                 -18.139
REMARK INTRA:                  -0.286
REMARK UNBOUND:                -0.286
REMARK SMILES Cc1ccc(NC(=O)c2ccc(CN3CCN(C)CC3)cc2)cc1Nc1nc(-c2cccnc2)cs1
REMARK SMILES IDX 6 1 7 2 8 3 5 5 2 6 3 7 24 8 4 9 23 10 1 11 25 12 26 14
REMARK SMILES IDX 27 15 36 16 28 17 35 18 29 19 30 20 34 21 31 22 33 23 32 24
REMARK SMILES IDX 9 25 10 26 22 27 11 28 21 29 12 30 13 31 14 32 15 33 20 34
REMARK SMILES IDX 16 35 19 36 17 37 18 38
REMARK H PARENT 6 4 25 13
ROOT
ATOM      1  N   UNL     1      24.299  26.093  40.035  1.00  0.00    -0.322 N 
ATOM      2  C   UNL     1      24.946  25.301  39.102  1.00  0.00     0.255 C 
ATOM      3  O   UNL     1      25.716  24.377  39.329  1.00  0.00    -0.269 OA
ATOM      4  H   UNL     1      23.584  26.714  39.683  1.00  0.00     0.170 HD
ENDROOT
BRANCH   1   5
ATOM      5  C   UNL     1      24.433  26.043  41.438  1.00  0.00     0.043 A 
ATOM      6  C   UNL     1      24.534  26.015  44.261  1.00  0.00    -0.027 A 
ATOM      7  C   UNL     1      23.508  26.692  43.590  1.00  0.00     0.008 A 
ATOM      8  C   UNL     1      25.536  25.374  43.509  1.00  0.00     0.045 A 
ATOM      9  C   UNL     1      23.458  26.703  42.194  1.00  0.00     0.026 A 
ATOM     10  C   UNL     1      25.472  25.392  42.104  1.00  0.00     0.052 A 
ATOM     11  C   UNL     1      24.557  26.021  45.765  1.00  0.00     0.046 C 
BRANCH   8  12
ATOM     12  N   UNL     1      26.615  24.718  44.150  1.00  0.00    -0.331 N 
ATOM     13  H   UNL     1      26.820  23.833  43.694  1.00  0.00     0.169 HD
BRANCH  12  14
ATOM     14  C   UNL     1      27.767  25.349  44.506  1.00  0.00     0.187 A 
ATOM     15  N   UNL     1      28.655  24.761  45.280  1.00  0.00    -0.220 NA
ATOM     16  S   UNL     1      28.203  26.954  44.035  1.00  0.00    -0.105 S 
ATOM     17  C   UNL     1      29.738  25.590  45.535  1.00  0.00     0.085 A 
ATOM     18  C   UNL     1      29.661  26.825  44.924  1.00  0.00     0.097 A 
BRANCH  17  19
ATOM     19  C   UNL     1      30.835  25.141  46.387  1.00  0.00     0.019 A 
ATOM     20  C   UNL     1      31.937  25.939  46.711  1.00  0.00     0.013 A 
ATOM     21  C   UNL     1      30.811  23.858  46.933  1.00  0.00     0.121 A 
ATOM     22  C   UNL     1      32.942  25.438  47.543  1.00  0.00     0.021 A 
ATOM     23  N   UNL     1      31.773  23.343  47.743  1.00  0.00    -0.264 NA
ATOM     24  C   UNL     1      32.816  24.148  48.028  1.00  0.00     0.111 A 
ENDBRANCH  17  19
ENDBRANCH  12  14
ENDBRANCH   8  12
ENDBRANCH   1   5
BRANCH   2  25
ATOM     25  C   UNL     1      24.599  25.606  37.686  1.00  0.00     0.040 A 
ATOM     26  C   UNL     1      23.436  26.337  37.424  1.00  0.00     0.014 A 
ATOM     27  C   UNL     1      25.400  25.167  36.624  1.00  0.00     0.014 A 
ATOM     28  C   UNL     1      23.093  26.657  36.110  1.00  0.00     0.006 A 
ATOM     29  C   UNL     1      25.051  25.486  35.308  1.00  0.00     0.006 A 
ATOM     30  C   UNL     1      23.901  26.244  35.039  1.00  0.00    -0.034 A 
BRANCH  30  31
ATOM     31  C   UNL     1      23.515  26.578  33.609  1.00  0.00     0.120 C 
BRANCH  31  32
ATOM     32  N   UNL     1      23.771  27.990  33.267  1.00  0.00    -0.297 NA
ATOM     33  C   UNL     1      22.724  28.857  33.838  1.00  0.00     0.100 C 
ATOM     34  C   UNL     1      23.828  28.193  31.798  1.00  0.00     0.100 C 
ATOM     35  C   UNL     1      21.313  28.712  33.206  1.00  0.00     0.099 C 
ATOM     36  C   UNL     1      22.523  28.690  31.118  1.00  0.00     0.099 C 
ATOM     37  N   UNL     1      21.318  28.221  31.815  1.00  0.00    -0.304 NA
ATOM     38  C   UNL     1      20.099  28.605  31.111  1.00  0.00     0.105 C 
ENDBRANCH  31  32
ENDBRANCH  30  31
ENDBRANCH   2  25
TORSDOF 7
ENDMDL
MODEL 2
REMARK VINA RESULT:   -11.968      2.850     12.778
REMARK INTER + INTRA:         -17.152
REMARK INTER:                 -16.422
REMARK INTRA:                  -0.730
REMARK UNBOUND:                -0.286
REMARK SMILES Cc1ccc(NC(=O)c2ccc(CN3CCN(C)CC3)cc2)cc1Nc1nc(-c2cccnc2)cs1
REMARK SMILES IDX 6 1 7 2 8 3 5 5 2 6 3 7 24 8 4 9 23 10 1 11 25 12 26 14
REMARK SMILES IDX 27 15 36 16 28 17 35 18 29 19 30 20 34 21 31 22 33 23 32 24
REMARK SMILES IDX 9 25 10 26 22 27 11 28 21 29 12 30 13 31 14 32 15 33 20 34
REMARK SMILES IDX 16 35 19 36 17 37 18 38
REMARK H PARENT 6 4 25 13
ROOT
ATOM      1  N   UNL     1      28.088  26.353  44.719  1.00  0.00    -0.322 N 
ATOM      2  C   UNL     1      28.722  25.243  45.248  1.00  0.00     0.255 C 
ATOM      3  O   UNL     1      28.336  24.082  45.200  1.00  0.00    -0.269 OA
ATOM      4  H   UNL     1      28.613  27.217  44.717  1.00  0.00     0.170 HD
ENDROOT
BRANCH   1   5
ATOM      5  C   UNL     1      26.839  26.394  44.064  1.00  0.00     0.043 A 
ATOM      6  C   UNL     1      24.260  26.474  42.917  1.00  0.00    -0.027 A 
ATOM      7  C   UNL     1      24.425  26.226  44.285  1.00  0.00     0.008 A 
ATOM      8  C   UNL     1      25.399  26.652  42.111  1.00  0.00     0.045 A 
ATOM      9  C   UNL     1      25.702  26.188  44.852  1.00  0.00     0.026 A 
ATOM     10  C   UNL     1      26.679  26.613  42.695  1.00  0.00     0.052 A 
ATOM     11  C   UNL     1      22.871  26.510  42.340  1.00  0.00     0.046 C 
BRANCH   8  12
ATOM     12  N   UNL     1      25.275  26.859  40.716  1.00  0.00    -0.331 N 
ATOM     13  H   UNL     1      25.868  27.628  40.412  1.00  0.00     0.169 HD
BRANCH  12  14
ATOM     14  C   UNL     1      25.302  25.848  39.805  1.00  0.00     0.187 A 
ATOM     15  N   UNL     1      25.327  26.096  38.512  1.00  0.00    -0.220 NA
ATOM     16  S   UNL     1      25.281  24.165  40.195  1.00  0.00    -0.105 S 
ATOM     17  C   UNL     1      25.326  24.925  37.768  1.00  0.00     0.085 A 
ATOM     18  C   UNL     1      25.312  23.773  38.528  1.00  0.00     0.097 A 
BRANCH  17  19
ATOM     19  C   UNL     1      25.336  24.970  36.309  1.00  0.00     0.019 A 
ATOM     20  C   UNL     1      26.193  24.196  35.520  1.00  0.00     0.013 A 
ATOM     21  C   UNL     1      24.452  25.810  35.633  1.00  0.00     0.121 A 
ATOM     22  C   UNL     1      26.134  24.289  34.127  1.00  0.00     0.021 A 
ATOM     23  N   UNL     1      24.372  25.922  34.281  1.00  0.00    -0.264 NA
ATOM     24  C   UNL     1      25.217  25.157  33.561  1.00  0.00     0.111 A 
ENDBRANCH  17  19
ENDBRANCH  12  14
ENDBRANCH   8  12
ENDBRANCH   1   5
BRANCH   2  25
ATOM     25  C   UNL     1      30.035  25.529  45.891  1.00  0.00     0.040 A 
ATOM     26  C   UNL     1      30.476  26.855  45.950  1.00  0.00     0.014 A 
ATOM     27  C   UNL     1      30.833  24.505  46.417  1.00  0.00     0.014 A 
ATOM     28  C   UNL     1      31.693  27.159  46.563  1.00  0.00     0.006 A 
ATOM     29  C   UNL     1      32.053  24.814  47.027  1.00  0.00     0.006 A 
ATOM     30  C   UNL     1      32.489  26.144  47.117  1.00  0.00    -0.034 A 
BRANCH  30  31
ATOM     31  C   UNL     1      33.820  26.478  47.767  1.00  0.00     0.120 C 
BRANCH  31  32
ATOM     32  N   UNL     1      34.924  26.554  46.793  1.00  0.00    -0.297 NA
ATOM     33  C   UNL     1      36.222  26.378  47.470  1.00  0.00     0.100 C 
ATOM     34  C   UNL     1      34.922  27.847  46.066  1.00  0.00     0.100 C 
ATOM     35  C   UNL     1      36.653  27.539  48.408  1.00  0.00     0.099 C 
ATOM     36  C   UNL     1      35.871  28.949  46.613  1.00  0.00     0.099 C 
ATOM     37  N   UNL     1      36.064  28.848  48.065  1.00  0.00    -0.304 NA
ATOM     38  C   UNL     1      36.872  29.946  48.584  1.00  0.00     0.105 C 
ENDBRANCH  31  32
ENDBRANCH  30  31
ENDBRANCH   2  25
TORSDOF 7
ENDMDL
MODEL 3
REMARK VINA RESULT:   -10.477      5.010     10.132
REMARK INTER + INTRA:         -15.051
REMARK INTER:                 -14.940
REMARK INTRA:                  -0.111
REMARK UNBOUND:                -0.286
REMARK SMILES Cc1ccc(NC(=O)c2ccc(CN3CCN(C)CC3)cc2)cc1Nc1nc(-c2cccnc2)cs1
REMARK SMILES IDX 6 1 7 2 8 3 5 5 2 6 3 7 24 8 4 9 23 10 1 11 25 12 26 14
REMARK SMILES IDX 27 15 36 16 28 17 35 18 29 19 30 20 34 21 31 22 33 23 32 24
REMARK SMILES IDX 9 25 10 26 22 27 11 28 21 29 12 30 13 31 14 32 15 33 20 34
REMARK SMILES IDX 16 35 19 36 17 37 18 38
REMARK H PARENT 6 4 25 13
ROOT
ATOM      1  N   UNL     1      32.196  25.336  46.945  1.00  0.00    -0.322 N 
ATOM      2  C   UNL     1      31.450  26.399  46.467  1.00  0.00     0.255 C 
ATOM      3  O   UNL     1      31.726  27.589  46.550  1.00  0.00    -0.269 OA
ATOM      4  H   UNL     1      31.901  24.412  46.664  1.00  0.00     0.170 HD
ENDROOT
BRANCH   1   5
ATOM      5  C   UNL     1      33.400  25.399  47.679  1.00  0.00     0.043 A 
ATOM      6  C   UNL     1      35.752  25.380  49.242  1.00  0.00    -0.027 A 
ATOM      7  C   UNL     1      34.653  24.588  49.597  1.00  0.00     0.008 A 
ATOM      8  C   UNL     1      35.660  26.212  48.112  1.00  0.00     0.045 A 
ATOM      9  C   UNL     1      33.491  24.597  48.821  1.00  0.00     0.026 A 
ATOM     10  C   UNL     1      34.484  26.209  47.339  1.00  0.00     0.052 A 
ATOM     11  C   UNL     1      36.988  25.344  50.098  1.00  0.00     0.046 C 
BRANCH   8  12
ATOM     12  N   UNL     1      36.732  27.061  47.747  1.00  0.00    -0.331 N 
ATOM     13  H   UNL     1      37.297  26.634  47.017  1.00  0.00     0.169 HD
BRANCH  12  14
ATOM     14  C   UNL     1      36.585  28.394  47.517  1.00  0.00     0.187 A 
ATOM     15  N   UNL     1      36.041  28.838  46.403  1.00  0.00    -0.220 NA
ATOM     16  S   UNL     1      37.092  29.646  48.595  1.00  0.00    -0.105 S 
ATOM     17  C   UNL     1      36.012  30.224  46.366  1.00  0.00     0.085 A 
ATOM     18  C   UNL     1      36.538  30.830  47.489  1.00  0.00     0.097 A 
BRANCH  17  19
ATOM     19  C   UNL     1      35.463  30.927  45.211  1.00  0.00     0.019 A 
ATOM     20  C   UNL     1      35.614  30.482  43.894  1.00  0.00     0.013 A 
ATOM     21  C   UNL     1      34.733  32.102  45.393  1.00  0.00     0.121 A 
ATOM     22  C   UNL     1      35.048  31.207  42.842  1.00  0.00     0.021 A 
ATOM     23  N   UNL     1      34.173  32.828  44.391  1.00  0.00    -0.264 NA
ATOM     24  C   UNL     1      34.344  32.361  43.138  1.00  0.00     0.111 A 
ENDBRANCH  17  19
ENDBRANCH  12  14
ENDBRANCH   8  12
ENDBRANCH   1   5
BRANCH   2  25
ATOM     25  C   UNL     1      30.214  26.006  45.735  1.00  0.00     0.040 A 
ATOM     26  C   UNL     1      29.741  26.845  44.722  1.00  0.00     0.014 A 
ATOM     27  C   UNL     1      29.516  24.833  46.050  1.00  0.00     0.014 A 
ATOM     28  C   UNL     1      28.597  26.496  44.003  1.00  0.00     0.006 A 
ATOM     29  C   UNL     1      28.367  24.489  45.331  1.00  0.00     0.006 A 
ATOM     30  C   UNL     1      27.904  25.310  44.293  1.00  0.00    -0.034 A 
BRANCH  30  31
ATOM     31  C   UNL     1      26.649  24.943  43.521  1.00  0.00     0.120 C 
BRANCH  31  32
ATOM     32  N   UNL     1      25.890  26.126  43.074  1.00  0.00    -0.297 NA
ATOM     33  C   UNL     1      24.530  25.739  42.657  1.00  0.00     0.100 C 
ATOM     34  C   UNL     1      26.569  26.818  41.951  1.00  0.00     0.100 C 
ATOM     35  C   UNL     1      24.441  24.896  41.356  1.00  0.00     0.099 C 
ATOM     36  C   UNL     1      26.072  26.466  40.522  1.00  0.00     0.099 C 
ATOM     37  N   UNL     1      25.572  25.089  40.429  1.00  0.00    -0.304 NA
ATOM     38  C   UNL     1      25.205  24.735  39.062  1.00  0.00     0.105 C 
ENDBRANCH  31  32
ENDBRANCH  30  31
ENDBRANCH   2  25
TORSDOF 7
ENDMDL
MODEL 4
REMARK VINA RESULT:   -10.394      6.038     13.193
REMARK INTER + INTRA:         -14.933
REMARK INTER:                 -15.028
REMARK INTRA:                   0.095
REMARK UNBOUND:                -0.286
REMARK SMILES Cc1ccc(NC(=O)c2ccc(CN3CCN(C)CC3)cc2)cc1Nc1nc(-c2cccnc2)cs1
REMARK SMILES IDX 6 1 7 2 8 3 5 5 2 6 3 7 24 8 4 9 23 10 1 11 25 12 26 14
REMARK SMILES IDX 27 15 36 16 28 17 35 18 29 19 30 20 34 21 31 22 33 23 32 24
REMARK SMILES IDX 9 25 10 26 22 27 11 28 21 29 12 30 13 31 14 32 15 33 20 34
REMARK SMILES IDX 16 35 19 36 17 37 18 38
REMARK H PARENT 6 4 25 13
ROOT
ATOM      1  N   UNL     1      33.442  27.429  46.460  1.00  0.00    -0.322 N 
ATOM      2  C   UNL     1      34.810  27.439  46.663  1.00  0.00     0.255 C 
ATOM      3  O   UNL     1      35.524  26.475  46.914  1.00  0.00    -0.269 OA
ATOM      4  H   UNL     1      33.029  28.285  46.117  1.00  0.00     0.170 HD
ENDROOT
BRANCH   1   5
ATOM      5  C   UNL     1      32.571  26.324  46.555  1.00  0.00     0.043 A 
ATOM      6  C   UNL     1      30.966  24.014  46.814  1.00  0.00    -0.027 A 
ATOM      7  C   UNL     1      32.355  23.940  46.976  1.00  0.00     0.008 A 
ATOM      8  C   UNL     1      30.380  25.251  46.488  1.00  0.00     0.045 A 
ATOM      9  C   UNL     1      33.147  25.084  46.850  1.00  0.00     0.026 A 
ATOM     10  C   UNL     1      31.190  26.395  46.365  1.00  0.00     0.052 A 
ATOM     11  C   UNL     1      30.142  22.764  46.959  1.00  0.00     0.046 C 
BRANCH   8  12
ATOM     12  N   UNL     1      28.985  25.357  46.271  1.00  0.00    -0.331 N 
ATOM     13  H   UNL     1      28.529  25.789  47.070  1.00  0.00     0.169 HD
BRANCH  12  14
ATOM     14  C   UNL     1      28.443  25.813  45.109  1.00  0.00     0.187 A 
ATOM     15  N   UNL     1      27.139  25.835  44.928  1.00  0.00    -0.220 NA
ATOM     16  S   UNL     1      29.347  26.380  43.750  1.00  0.00    -0.105 S 
ATOM     17  C   UNL     1      26.806  26.312  43.668  1.00  0.00     0.085 A 
ATOM     18  C   UNL     1      27.892  26.667  42.894  1.00  0.00     0.097 A 
BRANCH  17  19
ATOM     19  C   UNL     1      25.410  26.406  43.252  1.00  0.00     0.019 A 
ATOM     20  C   UNL     1      24.339  26.446  44.150  1.00  0.00     0.013 A 
ATOM     21  C   UNL     1      25.091  26.471  41.896  1.00  0.00     0.121 A 
ATOM     22  C   UNL     1      23.030  26.548  43.672  1.00  0.00     0.021 A 
ATOM     23  N   UNL     1      23.829  26.569  41.402  1.00  0.00    -0.264 NA
ATOM     24  C   UNL     1      22.829  26.605  42.304  1.00  0.00     0.111 A 
ENDBRANCH  17  19
ENDBRANCH  12  14
ENDBRANCH   8  12
ENDBRANCH   1   5
BRANCH   2  25
ATOM     25  C   UNL     1      35.451  28.774  46.498  1.00  0.00     0.040 A 
ATOM     26  C   UNL     1      35.337  29.422  45.265  1.00  0.00     0.014 A 
ATOM     27  C   UNL     1      36.168  29.377  47.539  1.00  0.00     0.014 A 
ATOM     28  C   UNL     1      35.908  30.683  45.084  1.00  0.00     0.006 A 
ATOM     29  C   UNL     1      36.742  30.638  47.353  1.00  0.00     0.006 A 
ATOM     30  C   UNL     1      36.607  31.309  46.128  1.00  0.00    -0.034 A 
BRANCH  30  31
ATOM     31  C   UNL     1      37.243  32.672  45.921  1.00  0.00     0.120 C 
BRANCH  31  32
ATOM     32  N   UNL     1      36.528  33.746  46.634  1.00  0.00    -0.297 NA
ATOM     33  C   UNL     1      35.154  33.884  46.116  1.00  0.00     0.100 C 
ATOM     34  C   UNL     1      37.231  35.046  46.510  1.00  0.00     0.100 C 
ATOM     35  C   UNL     1      35.034  34.439  44.671  1.00  0.00     0.099 C 
ATOM     36  C   UNL     1      36.722  36.004  45.398  1.00  0.00     0.099 C 
ATOM     37  N   UNL     1      36.172  35.278  44.246  1.00  0.00    -0.304 NA
ATOM     38  C   UNL     1      35.791  36.181  43.165  1.00  0.00     0.105 C 
ENDBRANCH  31  32
ENDBRANCH  30  31
ENDBRANCH   2  25
TORSDOF 7
ENDMDL
MODEL 5
REMARK VINA RESULT:   -10.298      3.664     11.941
REMARK INTER + INTRA:         -14.798
REMARK INTER:                 -14.487
REMARK INTRA:                  -0.311
REMARK UNBOUND:                -0.286
REMARK SMILES Cc1ccc(NC(=O)c2ccc(CN3CCN(C)CC3)cc2)cc1Nc1nc(-c2cccnc2)cs1
REMARK SMILES IDX 6 1 7 2 8 3 5 5 2 6 3 7 24 8 4 9 23 10 1 11 25 12 26 14
REMARK SMILES IDX 27 15 36 16 28 17 35 18 29 19 30 20 34 21 31 22 33 23 32 24
REMARK SMILES IDX 9 25 10 26 22 27 11 28 21 29 12 30 13 31 14 32 15 33 20 34
REMARK SMILES IDX 16 35 19 36 17 37 18 38
REMARK H PARENT 6 4 25 13
ROOT
ATOM      1  N   UNL     1      23.630  26.203  35.123  1.00  0.00    -0.322 N 
ATOM      2  C   UNL     1      24.652  25.337  35.469  1.00  0.00     0.255 C 
ATOM      3  O   UNL     1      25.395  24.731  34.706  1.00  0.00    -0.269 OA
ATOM      4  H   UNL     1      23.211  26.732  35.874  1.00  0.00     0.170 HD
ENDROOT
BRANCH   1   5
ATOM      5  C   UNL     1      23.188  26.528  33.823  1.00  0.00     0.043 A 
ATOM      6  C   UNL     1      22.319  27.002  31.178  1.00  0.00    -0.027 A 
ATOM      7  C   UNL     1      22.864  25.764  31.539  1.00  0.00     0.008 A 
ATOM      8  C   UNL     1      22.239  28.022  32.144  1.00  0.00     0.045 A 
ATOM      9  C   UNL     1      23.291  25.530  32.848  1.00  0.00     0.026 A 
ATOM     10  C   UNL     1      22.672  27.772  33.459  1.00  0.00     0.052 A 
ATOM     11  C   UNL     1      21.866  27.220  29.760  1.00  0.00     0.046 C 
BRANCH   8  12
ATOM     12  N   UNL     1      21.737  29.302  31.806  1.00  0.00    -0.331 N 
ATOM     13  H   UNL     1      21.188  29.259  30.951  1.00  0.00     0.169 HD
BRANCH  12  14
ATOM     14  C   UNL     1      21.151  30.136  32.708  1.00  0.00     0.187 A 
ATOM     15  N   UNL     1      21.806  30.565  33.766  1.00  0.00    -0.220 NA
ATOM     16  S   UNL     1      19.523  30.710  32.612  1.00  0.00    -0.105 S 
ATOM     17  C   UNL     1      21.014  31.381  34.561  1.00  0.00     0.085 A 
ATOM     18  C   UNL     1      19.738  31.577  34.074  1.00  0.00     0.097 A 
BRANCH  17  19
ATOM     19  C   UNL     1      21.540  31.954  35.796  1.00  0.00     0.019 A 
ATOM     20  C   UNL     1      20.969  33.057  36.439  1.00  0.00     0.013 A 
ATOM     21  C   UNL     1      22.663  31.391  36.401  1.00  0.00     0.121 A 
ATOM     22  C   UNL     1      21.526  33.540  37.626  1.00  0.00     0.021 A 
ATOM     23  N   UNL     1      23.228  31.839  37.553  1.00  0.00    -0.264 NA
ATOM     24  C   UNL     1      22.644  32.904  38.138  1.00  0.00     0.111 A 
ENDBRANCH  17  19
ENDBRANCH  12  14
ENDBRANCH   8  12
ENDBRANCH   1   5
BRANCH   2  25
ATOM     25  C   UNL     1      24.871  25.194  36.935  1.00  0.00     0.040 A 
ATOM     26  C   UNL     1      24.350  26.172  37.787  1.00  0.00     0.014 A 
ATOM     27  C   UNL     1      25.594  24.120  37.469  1.00  0.00     0.014 A 
ATOM     28  C   UNL     1      24.521  26.059  39.168  1.00  0.00     0.006 A 
ATOM     29  C   UNL     1      25.767  24.011  38.852  1.00  0.00     0.006 A 
ATOM     30  C   UNL     1      25.221  24.973  39.716  1.00  0.00    -0.034 A 
BRANCH  30  31
ATOM     31  C   UNL     1      25.421  24.862  41.216  1.00  0.00     0.120 C 
BRANCH  31  32
ATOM     32  N   UNL     1      25.366  26.171  41.895  1.00  0.00    -0.297 NA
ATOM     33  C   UNL     1      26.702  26.796  41.916  1.00  0.00     0.100 C 
ATOM     34  C   UNL     1      24.862  26.045  43.284  1.00  0.00     0.100 C 
ATOM     35  C   UNL     1      27.754  26.102  42.824  1.00  0.00     0.099 C 
ATOM     36  C   UNL     1      25.935  25.967  44.405  1.00  0.00     0.099 C 
ATOM     37  N   UNL     1      27.177  25.333  43.944  1.00  0.00    -0.304 NA
ATOM     38  C   UNL     1      28.139  25.171  45.028  1.00  0.00     0.105 C 
ENDBRANCH  31  32
ENDBRANCH  30  31
ENDBRANCH   2  25
TORSDOF 7
ENDMDL
MODEL 6
REMARK VINA RESULT:   -10.295      2.906     13.277
REMARK INTER + INTRA:         -14.794
REMARK INTER:                 -14.024
REMARK INTRA:                  -0.770
REMARK UNBOUND:                -0.286
REMARK SMILES Cc1ccc(NC(=O)c2ccc(CN3CCN(C)CC3)cc2)cc1Nc1nc(-c2cccnc2)cs1
REMARK SMILES IDX 6 1 7 2 8 3 5 5 2 6 3 7 24 8 4 9 23 10 1 11 25 12 26 14
REMARK SMILES IDX 27 15 36 16 28 17 35 18 29 19 30 20 34 21 31 22 33 23 32 24
REMARK SMILES IDX 9 25 10 26 22 27 11 28 21 29 12 30 13 31 14 32 15 33 20 34
REMARK SMILES IDX 16 35 19 36 17 37 18 38
REMARK H PARENT 6 4 25 13
ROOT
ATOM      1  N   UNL     1      28.025  26.066  44.823  1.00  0.00    -0.322 N 
ATOM      2  C   UNL     1      29.084  26.953  44.751  1.00  0.00     0.255 C 
ATOM      3  O   UNL     1      29.114  28.017  44.144  1.00  0.00    -0.269 OA
ATOM      4  H   UNL     1      28.112  25.309  45.486  1.00  0.00     0.170 HD
ENDROOT
BRANCH   1   5
ATOM      5  C   UNL     1      26.779  26.167  44.167  1.00  0.00     0.043 A 
ATOM      6  C   UNL     1      24.206  26.366  43.019  1.00  0.00    -0.027 A 
ATOM      7  C   UNL     1      24.360  26.068  44.379  1.00  0.00     0.008 A 
ATOM      8  C   UNL     1      25.353  26.534  42.221  1.00  0.00     0.045 A 
ATOM      9  C   UNL     1      25.634  25.972  44.946  1.00  0.00     0.026 A 
ATOM     10  C   UNL     1      26.629  26.436  42.807  1.00  0.00     0.052 A 
ATOM     11  C   UNL     1      22.821  26.464  42.441  1.00  0.00     0.046 C 
BRANCH   8  12
ATOM     12  N   UNL     1      25.240  26.791  40.834  1.00  0.00    -0.331 N 
ATOM     13  H   UNL     1      25.836  27.569  40.562  1.00  0.00     0.169 HD
BRANCH  12  14
ATOM     14  C   UNL     1      25.272  25.813  39.888  1.00  0.00     0.187 A 
ATOM     15  N   UNL     1      25.285  26.106  38.605  1.00  0.00    -0.220 NA
ATOM     16  S   UNL     1      25.274  24.117  40.219  1.00  0.00    -0.105 S 
ATOM     17  C   UNL     1      25.293  24.962  37.820  1.00  0.00     0.085 A 
ATOM     18  C   UNL     1      25.299  23.784  38.539  1.00  0.00     0.097 A 
BRANCH  17  19
ATOM     19  C   UNL     1      25.293  25.058  36.364  1.00  0.00     0.019 A 
ATOM     20  C   UNL     1      24.393  25.849  35.642  1.00  0.00     0.013 A 
ATOM     21  C   UNL     1      26.233  24.345  35.619  1.00  0.00     0.121 A 
ATOM     22  C   UNL     1      24.465  25.896  34.248  1.00  0.00     0.021 A 
ATOM     23  N   UNL     1      26.327  24.370  34.264  1.00  0.00    -0.264 NA
ATOM     24  C   UNL     1      25.439  25.146  33.611  1.00  0.00     0.111 A 
ENDBRANCH  17  19
ENDBRANCH  12  14
ENDBRANCH   8  12
ENDBRANCH   1   5
BRANCH   2  25
ATOM     25  C   UNL     1      30.275  26.559  45.554  1.00  0.00     0.040 A 
ATOM     26  C   UNL     1      31.244  27.528  45.833  1.00  0.00     0.014 A 
ATOM     27  C   UNL     1      30.447  25.249  46.017  1.00  0.00     0.014 A 
ATOM     28  C   UNL     1      32.362  27.197  46.600  1.00  0.00     0.006 A 
ATOM     29  C   UNL     1      31.571  24.919  46.781  1.00  0.00     0.006 A 
ATOM     30  C   UNL     1      32.533  25.893  47.091  1.00  0.00    -0.034 A 
BRANCH  30  31
ATOM     31  C   UNL     1      33.760  25.532  47.909  1.00  0.00     0.120 C 
BRANCH  31  32
ATOM     32  N   UNL     1      34.759  26.616  47.943  1.00  0.00    -0.297 NA
ATOM     33  C   UNL     1      36.113  26.077  47.719  1.00  0.00     0.100 C 
ATOM     34  C   UNL     1      34.730  27.346  49.234  1.00  0.00     0.100 C 
ATOM     35  C   UNL     1      36.682  25.194  48.863  1.00  0.00     0.099 C 
ATOM     36  C   UNL     1      35.770  26.906  50.300  1.00  0.00     0.099 C 
ATOM     37  N   UNL     1      36.110  25.481  50.193  1.00  0.00    -0.304 NA
ATOM     38  C   UNL     1      37.008  25.054  51.261  1.00  0.00     0.105 C 
ENDBRANCH  31  32
ENDBRANCH  30  31
ENDBRANCH   2  25
TORSDOF 7
ENDMDL
MODEL 7
REMARK VINA RESULT:   -10.179      3.795     12.453
REMARK INTER + INTRA:         -14.631
REMARK INTER:                 -13.916
REMARK INTRA:                  -0.715
REMARK UNBOUND:                -0.286
REMARK SMILES Cc1ccc(NC(=O)c2ccc(CN3CCN(C)CC3)cc2)cc1Nc1nc(-c2cccnc2)cs1
REMARK SMILES IDX 6 1 7 2 8 3 5 5 2 6 3 7 24 8 4 9 23 10 1 11 25 12 26 14
REMARK SMILES IDX 27 15 36 16 28 17 35 18 29 19 30 20 34 21 31 22 33 23 32 24
REMARK SMILES IDX 9 25 10 26 22 27 11 28 21 29 12 30 13 31 14 32 15 33 20 34
REMARK SMILES IDX 16 35 19 36 17 37 18 38
REMARK H PARENT 6 4 25 13
ROOT
ATOM      1  N   UNL     1      23.614  26.215  34.940  1.00  0.00    -0.322 N 
ATOM      2  C   UNL     1      24.606  25.312  35.277  1.00  0.00     0.255 C 
ATOM      3  O   UNL     1      25.308  24.668  34.508  1.00  0.00    -0.269 OA
ATOM      4  H   UNL     1      23.232  26.770  35.693  1.00  0.00     0.170 HD
ENDROOT
BRANCH   1   5
ATOM      5  C   UNL     1      23.162  26.544  33.645  1.00  0.00     0.043 A 
ATOM      6  C   UNL     1      22.251  27.025  31.015  1.00  0.00    -0.027 A 
ATOM      7  C   UNL     1      22.677  25.747  31.401  1.00  0.00     0.008 A 
ATOM      8  C   UNL     1      22.312  28.077  31.947  1.00  0.00     0.045 A 
ATOM      9  C   UNL     1      23.125  25.511  32.703  1.00  0.00     0.026 A 
ATOM     10  C   UNL     1      22.765  27.824  33.255  1.00  0.00     0.052 A 
ATOM     11  C   UNL     1      21.772  27.244  29.606  1.00  0.00     0.046 C 
BRANCH   8  12
ATOM     12  N   UNL     1      21.934  29.391  31.582  1.00  0.00    -0.331 N 
ATOM     13  H   UNL     1      20.925  29.460  31.480  1.00  0.00     0.169 HD
BRANCH  12  14
ATOM     14  C   UNL     1      22.429  30.506  32.185  1.00  0.00     0.187 A 
ATOM     15  N   UNL     1      23.594  31.010  31.836  1.00  0.00    -0.220 NA
ATOM     16  S   UNL     1      21.647  31.371  33.460  1.00  0.00    -0.105 S 
ATOM     17  C   UNL     1      23.915  32.127  32.593  1.00  0.00     0.085 A 
ATOM     18  C   UNL     1      22.957  32.473  33.523  1.00  0.00     0.097 A 
BRANCH  17  19
ATOM     19  C   UNL     1      25.174  32.834  32.380  1.00  0.00     0.019 A 
ATOM     20  C   UNL     1      26.392  32.425  32.932  1.00  0.00     0.013 A 
ATOM     21  C   UNL     1      25.204  33.977  31.581  1.00  0.00     0.121 A 
ATOM     22  C   UNL     1      27.557  33.151  32.672  1.00  0.00     0.021 A 
ATOM     23  N   UNL     1      26.320  34.704  31.311  1.00  0.00    -0.264 NA
ATOM     24  C   UNL     1      27.470  34.271  31.864  1.00  0.00     0.111 A 
ENDBRANCH  17  19
ENDBRANCH  12  14
ENDBRANCH   8  12
ENDBRANCH   1   5
BRANCH   2  25
ATOM     25  C   UNL     1      24.847  25.176  36.741  1.00  0.00     0.040 A 
ATOM     26  C   UNL     1      24.317  26.145  37.599  1.00  0.00     0.014 A 
ATOM     27  C   UNL     1      25.599  24.118  37.267  1.00  0.00     0.014 A 
ATOM     28  C   UNL     1      24.508  26.038  38.977  1.00  0.00     0.006 A 
ATOM     29  C   UNL     1      25.792  24.015  38.648  1.00  0.00     0.006 A 
ATOM     30  C   UNL     1      25.238  24.967  39.517  1.00  0.00    -0.034 A 
BRANCH  30  31
ATOM     31  C   UNL     1      25.459  24.863  41.015  1.00  0.00     0.120 C 
BRANCH  31  32
ATOM     32  N   UNL     1      25.412  26.174  41.689  1.00  0.00    -0.297 NA
ATOM     33  C   UNL     1      26.767  26.748  41.795  1.00  0.00     0.100 C 
ATOM     34  C   UNL     1      24.815  26.072  43.043  1.00  0.00     0.100 C 
ATOM     35  C   UNL     1      27.731  26.016  42.769  1.00  0.00     0.099 C 
ATOM     36  C   UNL     1      25.811  25.955  44.230  1.00  0.00     0.099 C 
ATOM     37  N   UNL     1      27.054  25.273  43.850  1.00  0.00    -0.304 NA
ATOM     38  C   UNL     1      27.938  25.076  44.993  1.00  0.00     0.105 C 
ENDBRANCH  31  32
ENDBRANCH  30  31
ENDBRANCH   2  25
TORSDOF 7
ENDMDL
MODEL 8
REMARK VINA RESULT:   -10.029      3.824     12.195
REMARK INTER + INTRA:         -14.419
REMARK INTER:                 -14.092
REMARK INTRA:                  -0.327
REMARK UNBOUND:                -0.286
REMARK SMILES Cc1ccc(NC(=O)c2ccc(CN3CCN(C)CC3)cc2)cc1Nc1nc(-c2cccnc2)cs1
REMARK SMILES IDX 6 1 7 2 8 3 5 5 2 6 3 7 24 8 4 9 23 10 1 11 25 12 26 14
REMARK SMILES IDX 27 15 36 16 28 17 35 18 29 19 30 20 34 21 31 22 33 23 32 24
REMARK SMILES IDX 9 25 10 26 22 27 11 28 21 29 12 30 13 31 14 32 15 33 20 34
REMARK SMILES IDX 16 35 19 36 17 37 18 38
REMARK H PARENT 6 4 25 13
ROOT
ATOM      1  N   UNL     1      23.501  26.388  34.757  1.00  0.00    -0.322 N 
ATOM      2  C   UNL     1      24.379  25.358  35.045  1.00  0.00     0.255 C 
ATOM      3  O   UNL     1      24.921  24.607  34.243  1.00  0.00    -0.269 OA
ATOM      4  H   UNL     1      23.260  27.004  35.521  1.00  0.00     0.170 HD
ENDROOT
BRANCH   1   5
ATOM      5  C   UNL     1      22.999  26.755  33.491  1.00  0.00     0.043 A 
ATOM      6  C   UNL     1      22.018  27.318  30.903  1.00  0.00    -0.027 A 
ATOM      7  C   UNL     1      22.637  26.093  31.181  1.00  0.00     0.008 A 
ATOM      8  C   UNL     1      21.918  28.282  31.924  1.00  0.00     0.045 A 
ATOM      9  C   UNL     1      23.120  25.815  32.462  1.00  0.00     0.026 A 
ATOM     10  C   UNL     1      22.408  27.987  33.210  1.00  0.00     0.052 A 
ATOM     11  C   UNL     1      21.507  27.584  29.514  1.00  0.00     0.046 C 
BRANCH   8  12
ATOM     12  N   UNL     1      21.340  29.549  31.670  1.00  0.00    -0.331 N 
ATOM     13  H   UNL     1      20.326  29.498  31.720  1.00  0.00     0.169 HD
BRANCH  12  14
ATOM     14  C   UNL     1      21.788  30.702  32.239  1.00  0.00     0.187 A 
ATOM     15  N   UNL     1      21.551  30.974  33.504  1.00  0.00    -0.220 NA
ATOM     16  S   UNL     1      22.674  31.933  31.412  1.00  0.00    -0.105 S 
ATOM     17  C   UNL     1      22.074  32.207  33.868  1.00  0.00     0.085 A 
ATOM     18  C   UNL     1      22.731  32.864  32.848  1.00  0.00     0.097 A 
BRANCH  17  19
ATOM     19  C   UNL     1      21.911  32.713  35.227  1.00  0.00     0.019 A 
ATOM     20  C   UNL     1      21.673  31.892  36.334  1.00  0.00     0.013 A 
ATOM     21  C   UNL     1      22.002  34.083  35.475  1.00  0.00     0.121 A 
ATOM     22  C   UNL     1      21.539  32.453  37.606  1.00  0.00     0.021 A 
ATOM     23  N   UNL     1      21.875  34.658  36.699  1.00  0.00    -0.264 NA
ATOM     24  C   UNL     1      21.647  33.827  37.736  1.00  0.00     0.111 A 
ENDBRANCH  17  19
ENDBRANCH  12  14
ENDBRANCH   8  12
ENDBRANCH   1   5
BRANCH   2  25
ATOM     25  C   UNL     1      24.712  25.215  36.489  1.00  0.00     0.040 A 
ATOM     26  C   UNL     1      24.217  26.166  37.387  1.00  0.00     0.014 A 
ATOM     27  C   UNL     1      25.515  24.167  36.958  1.00  0.00     0.014 A 
ATOM     28  C   UNL     1      24.495  26.050  38.750  1.00  0.00     0.006 A 
ATOM     29  C   UNL     1      25.794  24.057  38.323  1.00  0.00     0.006 A 
ATOM     30  C   UNL     1      25.277  24.990  39.234  1.00  0.00    -0.034 A 
BRANCH  30  31
ATOM     31  C   UNL     1      25.591  24.878  40.715  1.00  0.00     0.120 C 
BRANCH  31  32
ATOM     32  N   UNL     1      25.436  26.160  41.427  1.00  0.00    -0.297 NA
ATOM     33  C   UNL     1      26.753  26.778  41.668  1.00  0.00     0.100 C 
ATOM     34  C   UNL     1      24.734  25.984  42.722  1.00  0.00     0.100 C 
ATOM     35  C   UNL     1      27.661  26.046  42.693  1.00  0.00     0.099 C 
ATOM     36  C   UNL     1      25.631  25.858  43.984  1.00  0.00     0.099 C 
ATOM     37  N   UNL     1      26.928  25.238  43.686  1.00  0.00    -0.304 NA
ATOM     38  C   UNL     1      27.721  25.030  44.893  1.00  0.00     0.105 C 
ENDBRANCH  31  32
ENDBRANCH  30  31
ENDBRANCH   2  25
TORSDOF 7
ENDMDL
