MODEL 1
REMARK VINA RESULT:   -12.793      0.000      0.000
REMARK INTER + INTRA:         -18.367
REMARK INTER:                 -18.029
REMARK INTRA:                  -0.338
REMARK UNBOUND:                -0.338
REMARK SMILES Cc1ccc(NC(=O)c2ccc(CN3CCN(C)CC3)cc2)cc1Nc1nc(-c2cccnc2)cs1
REMARK SMILES IDX 6 1 7 2 8 3 5 5 2 6 3 7 24 8 4 9 23 10 1 11 25 12 26 14
REMARK SMILES IDX 27 15 36 16 28 17 35 18 29 19 30 20 34 21 31 22 33 23 32 24
REMARK SMILES IDX 9 25 10 26 22 27 11 28 21 29 12 30 13 31 14 32 15 33 20 34
REMARK SMILES IDX 16 35 19 36 17 37 18 38
REMARK H PARENT 6 4 25 13
ROOT
ATOM      1  N   UNL     1      24.260  26.070  40.074  1.00  0.00    -0.322 N 
ATOM      2  C   UNL     1      24.894  25.263  39.147  1.00  0.00     0.255 C 
ATOM      3  O   UNL     1      25.644  24.323  39.379  1.00  0.00    -0.269 OA
ATOM      4  H   UNL     1      23.559  26.706  39.718  1.00  0.00     0.170 HD
ENDROOT
BRANCH   1   5
ATOM      5  C   UNL     1      24.387  26.022  41.478  1.00  0.00     0.043 A 
ATOM      6  C   UNL     1      24.476  25.997  44.301  1.00  0.00    -0.027 A 
ATOM      7  C   UNL     1      23.458  26.681  43.625  1.00  0.00     0.008 A 
ATOM      8  C   UNL     1      25.476  25.346  43.555  1.00  0.00     0.045 A 
ATOM      9  C   UNL     1      23.414  26.691  42.228  1.00  0.00     0.026 A 
ATOM     10  C   UNL     1      25.418  25.363  42.149  1.00  0.00     0.052 A 
ATOM     11  C   UNL     1      24.491  26.005  45.805  1.00  0.00     0.046 C 
BRANCH   8  12
ATOM     12  N   UNL     1      26.546  24.683  44.202  1.00  0.00    -0.331 N 
ATOM     13  H   UNL     1      26.715  23.774  43.778  1.00  0.00     0.169 HD
BRANCH  12  14
ATOM     14  C   UNL     1      27.724  25.291  44.511  1.00  0.00     0.187 A 
ATOM     15  N   UNL     1      28.597  24.717  45.312  1.00  0.00    -0.220 NA
ATOM     16  S   UNL     1      28.213  26.848  43.943  1.00  0.00    -0.105 S 
ATOM     17  C   UNL     1      29.712  25.519  45.510  1.00  0.00     0.085 A 
ATOM     18  C   UNL     1      29.673  26.718  44.828  1.00  0.00     0.097 A 
BRANCH  17  19
ATOM     19  C   UNL     1      30.800  25.081  46.378  1.00  0.00     0.019 A 
ATOM     20  C   UNL     1      31.919  25.867  46.670  1.00  0.00     0.013 A 
ATOM     21  C   UNL     1      30.749  23.821  46.975  1.00  0.00     0.121 A 
ATOM     22  C   UNL     1      32.914  25.379  47.521  1.00  0.00     0.021 A 
ATOM     23  N   UNL     1      31.701  23.319  47.804  1.00  0.00    -0.264 NA
ATOM     24  C   UNL     1      32.761  24.112  48.057  1.00  0.00     0.111 A 
ENDBRANCH  17  19
ENDBRANCH  12  14
ENDBRANCH   8  12
ENDBRANCH   1   5
BRANCH   2  25
ATOM     25  C   UNL     1      24.559  25.571  37.728  1.00  0.00     0.040 A 
ATOM     26  C   UNL     1      23.391  26.289  37.457  1.00  0.00     0.014 A 
ATOM     27  C   UNL     1      25.377  25.147  36.672  1.00  0.00     0.014 A 
ATOM     28  C   UNL     1      23.058  26.612  36.140  1.00  0.00     0.006 A 
ATOM     29  C   UNL     1      25.039  25.469  35.354  1.00  0.00     0.006 A 
ATOM     30  C   UNL     1      23.883  26.215  35.076  1.00  0.00    -0.034 A 
BRANCH  30  31
ATOM     31  C   UNL     1      23.509  26.552  33.644  1.00  0.00     0.120 C 
BRANCH  31  32
ATOM     32  N   UNL     1      23.910  27.918  33.259  1.00  0.00    -0.297 NA
ATOM     33  C   UNL     1      23.020  28.913  33.885  1.00  0.00     0.100 C 
ATOM     34  C   UNL     1      23.888  28.098  31.787  1.00  0.00     0.100 C 
ATOM     35  C   UNL     1      21.560  28.936  33.354  1.00  0.00     0.099 C 
ATOM     36  C   UNL     1      22.608  28.744  31.189  1.00  0.00     0.099 C 
ATOM     37  N   UNL     1      21.407  28.434  31.975  1.00  0.00    -0.304 NA
ATOM     38  C   UNL     1      20.197  28.957  31.350  1.00  0.00     0.105 C 
ENDBRANCH  31  32
ENDBRANCH  30  31
ENDBRANCH   2  25
TORSDOF 7
ENDMDL
MODEL 2
REMARK VINA RESULT:   -11.911      2.892     12.715
REMARK INTER + INTRA:         -17.123
REMARK INTER:                 -16.430
REMARK INTRA:                  -0.693
REMARK UNBOUND:                -0.338
REMARK SMILES Cc1ccc(NC(=O)c2ccc(CN3CCN(C)CC3)cc2)cc1Nc1nc(-c2cccnc2)cs1
REMARK SMILES IDX 6 1 7 2 8 3 5 5 2 6 3 7 24 8 4 9 23 10 1 11 25 12 26 14
REMARK SMILES IDX 27 15 36 16 28 17 35 18 29 19 30 20 34 21 31 22 33 23 32 24
REMARK SMILES IDX 9 25 10 26 22 27 11 28 21 29 12 30 13 31 14 32 15 33 20 34
REMARK SMILES IDX 16 35 19 36 17 37 18 38
REMARK H PARENT 6 4 25 13
ROOT
ATOM      1  N   UNL     1      28.113  26.376  44.732  1.00  0.00    -0.322 N 
ATOM      2  C   UNL     1      28.725  25.277  45.308  1.00  0.00     0.255 C 
ATOM      3  O   UNL     1      28.314  24.123  45.314  1.00  0.00    -0.269 OA
ATOM      4  H   UNL     1      28.657  27.226  44.689  1.00  0.00     0.170 HD
ENDROOT
BRANCH   1   5
ATOM      5  C   UNL     1      26.862  26.413  44.080  1.00  0.00     0.043 A 
ATOM      6  C   UNL     1      24.279  26.490  42.940  1.00  0.00    -0.027 A 
ATOM      7  C   UNL     1      24.449  26.248  44.309  1.00  0.00     0.008 A 
ATOM      8  C   UNL     1      25.417  26.663  42.130  1.00  0.00     0.045 A 
ATOM      9  C   UNL     1      25.727  26.213  44.872  1.00  0.00     0.026 A 
ATOM     10  C   UNL     1      26.698  26.626  42.711  1.00  0.00     0.052 A 
ATOM     11  C   UNL     1      22.889  26.523  42.368  1.00  0.00     0.046 C 
BRANCH   8  12
ATOM     12  N   UNL     1      25.289  26.864  40.735  1.00  0.00    -0.331 N 
ATOM     13  H   UNL     1      25.880  27.631  40.426  1.00  0.00     0.169 HD
BRANCH  12  14
ATOM     14  C   UNL     1      25.312  25.848  39.829  1.00  0.00     0.187 A 
ATOM     15  N   UNL     1      25.329  26.090  38.535  1.00  0.00    -0.220 NA
ATOM     16  S   UNL     1      25.299  24.167  40.227  1.00  0.00    -0.105 S 
ATOM     17  C   UNL     1      25.327  24.916  37.796  1.00  0.00     0.085 A 
ATOM     18  C   UNL     1      25.321  23.767  38.562  1.00  0.00     0.097 A 
BRANCH  17  19
ATOM     19  C   UNL     1      25.329  24.954  36.337  1.00  0.00     0.019 A 
ATOM     20  C   UNL     1      26.208  24.206  35.547  1.00  0.00     0.013 A 
ATOM     21  C   UNL     1      24.413  25.759  35.661  1.00  0.00     0.121 A 
ATOM     22  C   UNL     1      26.139  24.289  34.154  1.00  0.00     0.021 A 
ATOM     23  N   UNL     1      24.323  25.862  34.309  1.00  0.00    -0.264 NA
ATOM     24  C   UNL     1      25.190  25.123  33.588  1.00  0.00     0.111 A 
ENDBRANCH  17  19
ENDBRANCH  12  14
ENDBRANCH   8  12
ENDBRANCH   1   5
BRANCH   2  25
ATOM     25  C   UNL     1      30.047  25.563  45.933  1.00  0.00     0.040 A 
ATOM     26  C   UNL     1      30.501  26.885  45.961  1.00  0.00     0.014 A 
ATOM     27  C   UNL     1      30.841  24.542  46.472  1.00  0.00     0.014 A 
ATOM     28  C   UNL     1      31.727  27.190  46.556  1.00  0.00     0.006 A 
ATOM     29  C   UNL     1      32.069  24.851  47.063  1.00  0.00     0.006 A 
ATOM     30  C   UNL     1      32.518  26.179  47.123  1.00  0.00    -0.034 A 
BRANCH  30  31
ATOM     31  C   UNL     1      33.859  26.512  47.753  1.00  0.00     0.120 C 
BRANCH  31  32
ATOM     32  N   UNL     1      34.946  26.602  46.761  1.00  0.00    -0.297 NA
ATOM     33  C   UNL     1      36.256  26.427  47.415  1.00  0.00     0.100 C 
ATOM     34  C   UNL     1      34.925  27.901  46.045  1.00  0.00     0.100 C 
ATOM     35  C   UNL     1      36.697  27.583  48.355  1.00  0.00     0.099 C 
ATOM     36  C   UNL     1      35.877  29.004  46.585  1.00  0.00     0.099 C 
ATOM     37  N   UNL     1      36.096  28.891  48.033  1.00  0.00    -0.304 NA
ATOM     38  C   UNL     1      36.907  29.989  48.548  1.00  0.00     0.105 C 
ENDBRANCH  31  32
ENDBRANCH  30  31
ENDBRANCH   2  25
TORSDOF 7
ENDMDL
MODEL 3
REMARK VINA RESULT:   -10.466      4.991     10.126
REMARK INTER + INTRA:         -15.086
REMARK INTER:                 -14.983
REMARK INTRA:                  -0.103
REMARK UNBOUND:                -0.338
REMARK SMILES Cc1ccc(NC(=O)c2ccc(CN3CCN(C)CC3)cc2)cc1Nc1nc(-c2cccnc2)cs1
REMARK SMILES IDX 6 1 7 2 8 3 5 5 2 6 3 7 24 8 4 9 23 10 1 11 25 12 26 14
REMARK SMILES IDX 27 15 36 16 28 17 35 18 29 19 30 20 34 21 31 22 33 23 32 24
REMARK SMILES IDX 9 25 10 26 22 27 11 28 21 29 12 30 13 31 14 32 15 33 20 34
REMARK SMILES IDX 16 35 19 36 17 37 18 38
REMARK H PARENT 6 4 25 13
ROOT
ATOM      1  N   UNL     1      32.172  25.344  46.940  1.00  0.00    -0.322 N 
ATOM      2  C   UNL     1      31.423  26.412  46.476  1.00  0.00     0.255 C 
ATOM      3  O   UNL     1      31.700  27.601  46.570  1.00  0.00    -0.269 OA
ATOM      4  H   UNL     1      31.875  24.423  46.650  1.00  0.00     0.170 HD
ENDROOT
BRANCH   1   5
ATOM      5  C   UNL     1      33.379  25.399  47.668  1.00  0.00     0.043 A 
ATOM      6  C   UNL     1      35.739  25.365  49.220  1.00  0.00    -0.027 A 
ATOM      7  C   UNL     1      34.639  24.573  49.574  1.00  0.00     0.008 A 
ATOM      8  C   UNL     1      35.643  26.205  48.095  1.00  0.00     0.045 A 
ATOM      9  C   UNL     1      33.473  24.590  48.804  1.00  0.00     0.026 A 
ATOM     10  C   UNL     1      34.463  26.210  47.328  1.00  0.00     0.052 A 
ATOM     11  C   UNL     1      36.979  25.321  50.070  1.00  0.00     0.046 C 
BRANCH   8  12
ATOM     12  N   UNL     1      36.715  27.054  47.731  1.00  0.00    -0.331 N 
ATOM     13  H   UNL     1      37.279  26.628  46.999  1.00  0.00     0.169 HD
BRANCH  12  14
ATOM     14  C   UNL     1      36.569  28.388  47.504  1.00  0.00     0.187 A 
ATOM     15  N   UNL     1      36.028  28.835  46.390  1.00  0.00    -0.220 NA
ATOM     16  S   UNL     1      37.072  29.637  48.588  1.00  0.00    -0.105 S 
ATOM     17  C   UNL     1      35.999  30.221  46.357  1.00  0.00     0.085 A 
ATOM     18  C   UNL     1      36.521  30.824  47.484  1.00  0.00     0.097 A 
BRANCH  17  19
ATOM     19  C   UNL     1      35.453  30.927  45.202  1.00  0.00     0.019 A 
ATOM     20  C   UNL     1      35.628  30.498  43.882  1.00  0.00     0.013 A 
ATOM     21  C   UNL     1      34.704  32.089  45.387  1.00  0.00     0.121 A 
ATOM     22  C   UNL     1      35.064  31.225  42.831  1.00  0.00     0.021 A 
ATOM     23  N   UNL     1      34.144  32.816  44.385  1.00  0.00    -0.264 NA
ATOM     24  C   UNL     1      34.338  32.365  43.130  1.00  0.00     0.111 A 
ENDBRANCH  17  19
ENDBRANCH  12  14
ENDBRANCH   8  12
ENDBRANCH   1   5
BRANCH   2  25
ATOM     25  C   UNL     1      30.183  26.026  45.746  1.00  0.00     0.040 A 
ATOM     26  C   UNL     1      29.709  26.872  44.739  1.00  0.00     0.014 A 
ATOM     27  C   UNL     1      29.483  24.853  46.057  1.00  0.00     0.014 A 
ATOM     28  C   UNL     1      28.561  26.530  44.023  1.00  0.00     0.006 A 
ATOM     29  C   UNL     1      28.331  24.516  45.340  1.00  0.00     0.006 A 
ATOM     30  C   UNL     1      27.866  25.344  44.308  1.00  0.00    -0.034 A 
BRANCH  30  31
ATOM     31  C   UNL     1      26.608  24.985  43.539  1.00  0.00     0.120 C 
BRANCH  31  32
ATOM     32  N   UNL     1      25.877  26.173  43.059  1.00  0.00    -0.297 NA
ATOM     33  C   UNL     1      24.517  25.801  42.627  1.00  0.00     0.100 C 
ATOM     34  C   UNL     1      26.584  26.833  41.936  1.00  0.00     0.100 C 
ATOM     35  C   UNL     1      24.434  24.936  41.339  1.00  0.00     0.099 C 
ATOM     36  C   UNL     1      26.105  26.465  40.504  1.00  0.00     0.099 C 
ATOM     37  N   UNL     1      25.583  25.094  40.427  1.00  0.00    -0.304 NA
ATOM     38  C   UNL     1      25.232  24.723  39.061  1.00  0.00     0.105 C 
ENDBRANCH  31  32
ENDBRANCH  30  31
ENDBRANCH   2  25
TORSDOF 7
ENDMDL
MODEL 4
REMARK VINA RESULT:   -10.307      3.647     11.910
REMARK INTER + INTRA:         -14.863
REMARK INTER:                 -14.580
REMARK INTRA:                  -0.283
REMARK UNBOUND:                -0.338
REMARK SMILES Cc1ccc(NC(=O)c2ccc(CN3CCN(C)CC3)cc2)cc1Nc1nc(-c2cccnc2)cs1
REMARK SMILES IDX 6 1 7 2 8 3 5 5 2 6 3 7 24 8 4 9 23 10 1 11 25 12 26 14
REMARK SMILES IDX 27 15 36 16 28 17 35 18 29 19 30 20 34 21 31 22 33 23 32 24
REMARK SMILES IDX 9 25 10 26 22 27 11 28 21 29 12 30 13 31 14 32 15 33 20 34
REMARK SMILES IDX 16 35 19 36 17 37 18 38
REMARK H PARENT 6 4 25 13
ROOT
ATOM      1  N   UNL     1      23.625  26.208  35.123  1.00  0.00    -0.322 N 
ATOM      2  C   UNL     1      24.621  25.307  35.454  1.00  0.00     0.255 C 
ATOM      3  O   UNL     1      25.327  24.672  34.681  1.00  0.00    -0.269 OA
ATOM      4  H   UNL     1      23.239  26.755  35.880  1.00  0.00     0.170 HD
ENDROOT
BRANCH   1   5
ATOM      5  C   UNL     1      23.173  26.545  33.829  1.00  0.00     0.043 A 
ATOM      6  C   UNL     1      22.291  27.046  31.193  1.00  0.00    -0.027 A 
ATOM      7  C   UNL     1      22.889  25.824  31.526  1.00  0.00     0.008 A 
ATOM      8  C   UNL     1      22.163  28.037  32.184  1.00  0.00     0.045 A 
ATOM      9  C   UNL     1      23.323  25.577  32.831  1.00  0.00     0.026 A 
ATOM     10  C   UNL     1      22.603  27.774  33.494  1.00  0.00     0.052 A 
ATOM     11  C   UNL     1      21.833  27.278  29.779  1.00  0.00     0.046 C 
BRANCH   8  12
ATOM     12  N   UNL     1      21.606  29.302  31.875  1.00  0.00    -0.331 N 
ATOM     13  H   UNL     1      21.020  29.244  31.046  1.00  0.00     0.169 HD
BRANCH  12  14
ATOM     14  C   UNL     1      21.035  30.114  32.807  1.00  0.00     0.187 A 
ATOM     15  N   UNL     1      21.724  30.561  33.835  1.00  0.00    -0.220 NA
ATOM     16  S   UNL     1      19.387  30.633  32.789  1.00  0.00    -0.105 S 
ATOM     17  C   UNL     1      20.943  31.348  34.669  1.00  0.00     0.085 A 
ATOM     18  C   UNL     1      19.640  31.502  34.243  1.00  0.00     0.097 A 
BRANCH  17  19
ATOM     19  C   UNL     1      21.506  31.935  35.881  1.00  0.00     0.019 A 
ATOM     20  C   UNL     1      20.959  33.051  36.524  1.00  0.00     0.013 A 
ATOM     21  C   UNL     1      22.643  31.375  36.462  1.00  0.00     0.121 A 
ATOM     22  C   UNL     1      21.552  33.547  37.688  1.00  0.00     0.021 A 
ATOM     23  N   UNL     1      23.242  31.836  37.591  1.00  0.00    -0.264 NA
ATOM     24  C   UNL     1      22.680  32.911  38.177  1.00  0.00     0.111 A 
ENDBRANCH  17  19
ENDBRANCH  12  14
ENDBRANCH   8  12
ENDBRANCH   1   5
BRANCH   2  25
ATOM     25  C   UNL     1      24.860  25.161  36.917  1.00  0.00     0.040 A 
ATOM     26  C   UNL     1      24.339  26.130  37.780  1.00  0.00     0.014 A 
ATOM     27  C   UNL     1      25.601  24.092  37.437  1.00  0.00     0.014 A 
ATOM     28  C   UNL     1      24.528  26.013  39.158  1.00  0.00     0.006 A 
ATOM     29  C   UNL     1      25.792  23.980  38.818  1.00  0.00     0.006 A 
ATOM     30  C   UNL     1      25.247  24.932  39.692  1.00  0.00    -0.034 A 
BRANCH  30  31
ATOM     31  C   UNL     1      25.466  24.818  41.190  1.00  0.00     0.120 C 
BRANCH  31  32
ATOM     32  N   UNL     1      25.454  26.127  41.868  1.00  0.00    -0.297 NA
ATOM     33  C   UNL     1      26.814  26.697  41.914  1.00  0.00     0.100 C 
ATOM     34  C   UNL     1      24.919  26.023  43.247  1.00  0.00     0.100 C 
ATOM     35  C   UNL     1      27.819  25.960  42.841  1.00  0.00     0.099 C 
ATOM     36  C   UNL     1      25.967  25.901  44.388  1.00  0.00     0.099 C 
ATOM     37  N   UNL     1      27.190  25.216  43.950  1.00  0.00    -0.304 NA
ATOM     38  C   UNL     1      28.124  25.014  45.052  1.00  0.00     0.105 C 
ENDBRANCH  31  32
ENDBRANCH  30  31
ENDBRANCH   2  25
TORSDOF 7
ENDMDL
MODEL 5
REMARK VINA RESULT:   -10.101      3.765     12.449
REMARK INTER + INTRA:         -14.573
REMARK INTER:                 -13.810
REMARK INTRA:                  -0.763
REMARK UNBOUND:                -0.338
REMARK SMILES Cc1ccc(NC(=O)c2ccc(CN3CCN(C)CC3)cc2)cc1Nc1nc(-c2cccnc2)cs1
REMARK SMILES IDX 6 1 7 2 8 3 5 5 2 6 3 7 24 8 4 9 23 10 1 11 25 12 26 14
REMARK SMILES IDX 27 15 36 16 28 17 35 18 29 19 30 20 34 21 31 22 33 23 32 24
REMARK SMILES IDX 9 25 10 26 22 27 11 28 21 29 12 30 13 31 14 32 15 33 20 34
REMARK SMILES IDX 16 35 19 36 17 37 18 38
REMARK H PARENT 6 4 25 13
ROOT
ATOM      1  N   UNL     1      23.618  26.184  35.045  1.00  0.00    -0.322 N 
ATOM      2  C   UNL     1      24.694  25.392  35.403  1.00  0.00     0.255 C 
ATOM      3  O   UNL     1      25.502  24.863  34.650  1.00  0.00    -0.269 OA
ATOM      4  H   UNL     1      23.139  26.664  35.794  1.00  0.00     0.170 HD
ENDROOT
BRANCH   1   5
ATOM      5  C   UNL     1      23.187  26.502  33.739  1.00  0.00     0.043 A 
ATOM      6  C   UNL     1      22.323  26.960  31.090  1.00  0.00    -0.027 A 
ATOM      7  C   UNL     1      22.752  25.689  31.491  1.00  0.00     0.008 A 
ATOM      8  C   UNL     1      22.357  28.018  32.017  1.00  0.00     0.045 A 
ATOM      9  C   UNL     1      23.178  25.463  32.803  1.00  0.00     0.026 A 
ATOM     10  C   UNL     1      22.787  27.776  33.335  1.00  0.00     0.052 A 
ATOM     11  C   UNL     1      21.869  27.168  29.671  1.00  0.00     0.046 C 
BRANCH   8  12
ATOM     12  N   UNL     1      21.975  29.327  31.637  1.00  0.00    -0.331 N 
ATOM     13  H   UNL     1      20.965  29.391  31.534  1.00  0.00     0.169 HD
BRANCH  12  14
ATOM     14  C   UNL     1      22.466  30.450  32.228  1.00  0.00     0.187 A 
ATOM     15  N   UNL     1      23.612  30.975  31.848  1.00  0.00    -0.220 NA
ATOM     16  S   UNL     1      21.703  31.300  33.525  1.00  0.00    -0.105 S 
ATOM     17  C   UNL     1      23.933  32.098  32.598  1.00  0.00     0.085 A 
ATOM     18  C   UNL     1      22.993  32.425  33.555  1.00  0.00     0.097 A 
BRANCH  17  19
ATOM     19  C   UNL     1      25.172  32.828  32.353  1.00  0.00     0.019 A 
ATOM     20  C   UNL     1      26.400  32.479  32.925  1.00  0.00     0.013 A 
ATOM     21  C   UNL     1      25.172  33.931  31.500  1.00  0.00     0.121 A 
ATOM     22  C   UNL     1      27.545  33.223  32.631  1.00  0.00     0.021 A 
ATOM     23  N   UNL     1      26.269  34.674  31.196  1.00  0.00    -0.264 NA
ATOM     24  C   UNL     1      27.430  34.300  31.770  1.00  0.00     0.111 A 
ENDBRANCH  17  19
ENDBRANCH  12  14
ENDBRANCH   8  12
ENDBRANCH   1   5
BRANCH   2  25
ATOM     25  C   UNL     1      24.885  25.236  36.872  1.00  0.00     0.040 A 
ATOM     26  C   UNL     1      24.328  26.194  37.724  1.00  0.00     0.014 A 
ATOM     27  C   UNL     1      25.615  24.168  37.408  1.00  0.00     0.014 A 
ATOM     28  C   UNL     1      24.471  26.067  39.107  1.00  0.00     0.006 A 
ATOM     29  C   UNL     1      25.760  24.046  38.793  1.00  0.00     0.006 A 
ATOM     30  C   UNL     1      25.179  24.987  39.656  1.00  0.00    -0.034 A 
BRANCH  30  31
ATOM     31  C   UNL     1      25.347  24.861  41.160  1.00  0.00     0.120 C 
BRANCH  31  32
ATOM     32  N   UNL     1      25.335  26.168  41.844  1.00  0.00    -0.297 NA
ATOM     33  C   UNL     1      26.696  26.731  41.904  1.00  0.00     0.100 C 
ATOM     34  C   UNL     1      24.789  26.059  43.219  1.00  0.00     0.100 C 
ATOM     35  C   UNL     1      27.691  25.986  42.835  1.00  0.00     0.099 C 
ATOM     36  C   UNL     1      25.827  25.927  44.367  1.00  0.00     0.099 C 
ATOM     37  N   UNL     1      27.051  25.239  43.935  1.00  0.00    -0.304 NA
ATOM     38  C   UNL     1      27.976  25.028  45.043  1.00  0.00     0.105 C 
ENDBRANCH  31  32
ENDBRANCH  30  31
ENDBRANCH   2  25
TORSDOF 7
ENDMDL
MODEL 6
REMARK VINA RESULT:    -9.868      6.222     13.295
REMARK INTER + INTRA:         -14.244
REMARK INTER:                 -14.667
REMARK INTRA:                   0.423
REMARK UNBOUND:                -0.338
REMARK SMILES Cc1ccc(NC(=O)c2ccc(CN3CCN(C)CC3)cc2)cc1Nc1nc(-c2cccnc2)cs1
REMARK SMILES IDX 6 1 7 2 8 3 5 5 2 6 3 7 24 8 4 9 23 10 1 11 25 12 26 14
REMARK SMILES IDX 27 15 36 16 28 17 35 18 29 19 30 20 34 21 31 22 33 23 32 24
REMARK SMILES IDX 9 25 10 26 22 27 11 28 21 29 12 30 13 31 14 32 15 33 20 34
REMARK SMILES IDX 16 35 19 36 17 37 18 38
REMARK H PARENT 6 4 25 13
ROOT
ATOM      1  N   UNL     1      33.599  27.814  46.189  1.00  0.00    -0.322 N 
ATOM      2  C   UNL     1      34.973  27.914  46.310  1.00  0.00     0.255 C 
ATOM      3  O   UNL     1      35.755  27.016  46.597  1.00  0.00    -0.269 OA
ATOM      4  H   UNL     1      33.118  28.614  45.801  1.00  0.00     0.170 HD
ENDROOT
BRANCH   1   5
ATOM      5  C   UNL     1      32.801  26.674  46.426  1.00  0.00     0.043 A 
ATOM      6  C   UNL     1      31.347  24.316  46.979  1.00  0.00    -0.027 A 
ATOM      7  C   UNL     1      32.737  24.355  47.149  1.00  0.00     0.008 A 
ATOM      8  C   UNL     1      30.685  25.460  46.496  1.00  0.00     0.045 A 
ATOM      9  C   UNL     1      33.454  25.523  46.877  1.00  0.00     0.026 A 
ATOM     10  C   UNL     1      31.420  26.630  46.228  1.00  0.00     0.052 A 
ATOM     11  C   UNL     1      30.606  23.044  47.283  1.00  0.00     0.046 C 
BRANCH   8  12
ATOM     12  N   UNL     1      29.288  25.446  46.268  1.00  0.00    -0.331 N 
ATOM     13  H   UNL     1      28.787  25.803  47.078  1.00  0.00     0.169 HD
BRANCH  12  14
ATOM     14  C   UNL     1      28.715  25.894  45.117  1.00  0.00     0.187 A 
ATOM     15  N   UNL     1      27.409  25.877  44.956  1.00  0.00    -0.220 NA
ATOM     16  S   UNL     1      29.582  26.499  43.751  1.00  0.00    -0.105 S 
ATOM     17  C   UNL     1      27.043  26.354  43.705  1.00  0.00     0.085 A 
ATOM     18  C   UNL     1      28.106  26.748  42.918  1.00  0.00     0.097 A 
BRANCH  17  19
ATOM     19  C   UNL     1      25.639  26.408  43.310  1.00  0.00     0.019 A 
ATOM     20  C   UNL     1      24.582  26.467  44.224  1.00  0.00     0.013 A 
ATOM     21  C   UNL     1      25.296  26.413  41.958  1.00  0.00     0.121 A 
ATOM     22  C   UNL     1      23.264  26.528  43.765  1.00  0.00     0.021 A 
ATOM     23  N   UNL     1      24.025  26.470  41.482  1.00  0.00    -0.264 NA
ATOM     24  C   UNL     1      23.039  26.527  42.399  1.00  0.00     0.111 A 
ENDBRANCH  17  19
ENDBRANCH  12  14
ENDBRANCH   8  12
ENDBRANCH   1   5
BRANCH   2  25
ATOM     25  C   UNL     1      35.524  29.263  45.999  1.00  0.00     0.040 A 
ATOM     26  C   UNL     1      36.167  29.974  47.017  1.00  0.00     0.014 A 
ATOM     27  C   UNL     1      35.398  29.832  44.726  1.00  0.00     0.014 A 
ATOM     28  C   UNL     1      36.711  31.232  46.755  1.00  0.00     0.006 A 
ATOM     29  C   UNL     1      35.940  31.094  44.467  1.00  0.00     0.006 A 
ATOM     30  C   UNL     1      36.613  31.801  45.476  1.00  0.00    -0.034 A 
BRANCH  30  31
ATOM     31  C   UNL     1      37.191  33.177  45.199  1.00  0.00     0.120 C 
BRANCH  31  32
ATOM     32  N   UNL     1      36.170  34.141  44.747  1.00  0.00    -0.297 NA
ATOM     33  C   UNL     1      36.652  35.523  44.926  1.00  0.00     0.100 C 
ATOM     34  C   UNL     1      34.893  33.969  45.481  1.00  0.00     0.100 C 
ATOM     35  C   UNL     1      36.793  36.000  46.397  1.00  0.00     0.099 C 
ATOM     36  C   UNL     1      34.659  34.912  46.693  1.00  0.00     0.099 C 
ATOM     37  N   UNL     1      35.915  35.295  47.351  1.00  0.00    -0.304 NA
ATOM     38  C   UNL     1      35.679  36.095  48.548  1.00  0.00     0.105 C 
ENDBRANCH  31  32
ENDBRANCH  30  31
ENDBRANCH   2  25
TORSDOF 7
ENDMDL
