MODEL 1
REMARK VINA RESULT:    -7.543      0.000      0.000
REMARK INTER + INTRA:          -8.742
REMARK INTER:                  -8.425
REMARK INTRA:                  -0.317
REMARK UNBOUND:                -0.317
REMARK SMILES O=C(N[C@H]1CN2CCC1CC2)c1cc2cccc(Cl)c2s1
REMARK SMILES IDX 12 1 13 2 14 3 20 4 18 5 17 6 16 7 15 8 21 9 19 10 2 11 3 12
REMARK SMILES IDX 1 13 4 15 9 16 5 17 8 18 10 19 6 20 7 21 11 22
REMARK H PARENT 3 14
ROOT
ATOM      1  C   UNL     1     143.543 138.587  90.851  1.00  0.00     0.093 A 
ATOM      2  C   UNL     1     143.784 137.279  91.102  1.00  0.00     0.034 A 
ATOM      3  C   UNL     1     145.140 136.818  91.201  1.00  0.00    -0.005 A 
ATOM      4  C   UNL     1     146.110 137.862  91.013  1.00  0.00     0.054 A 
ATOM      5  C   UNL     1     147.451 137.567  91.081  1.00  0.00     0.058 A 
ATOM      6  C   UNL     1     147.863 136.255  91.334  1.00  0.00     0.022 A 
ATOM      7  C   UNL     1     146.911 135.237  91.516  1.00  0.00     0.002 A 
ATOM      8  C   UNL     1     145.550 135.534  91.446  1.00  0.00     0.010 A 
ATOM      9  S   UNL     1     145.104 139.348  90.722  1.00  0.00    -0.128 S 
ATOM     10  Cl  UNL     1     148.662 138.854  90.849  1.00  0.00    -0.083 Cl
ENDROOT
BRANCH   1  11
ATOM     11  C   UNL     1     142.160 139.233  90.714  1.00  0.00     0.261 C 
ATOM     12  N   UNL     1     141.008 138.437  90.341  1.00  0.00    -0.347 N 
ATOM     13  O   UNL     1     142.034 140.394  90.912  1.00  0.00    -0.268 OA
ATOM     14  H   UNL     1     141.104 137.472  90.173  1.00  0.00     0.164 HD
BRANCH  12  15
ATOM     15  C   UNL     1     139.683 139.087  90.216  1.00  0.00     0.099 C 
ATOM     16  C   UNL     1     138.639 138.192  90.706  1.00  0.00     0.015 C 
ATOM     17  C   UNL     1     139.391 139.404  88.736  1.00  0.00     0.109 C 
ATOM     18  C   UNL     1     137.366 138.833  90.528  1.00  0.00     0.021 C 
ATOM     19  C   UNL     1     138.659 136.976  89.897  1.00  0.00     0.021 C 
ATOM     20  N   UNL     1     138.217 138.779  88.307  1.00  0.00    -0.301 NA
ATOM     21  C   UNL     1     137.150 139.178  89.084  1.00  0.00     0.085 C 
ATOM     22  C   UNL     1     138.364 137.373  88.400  1.00  0.00     0.085 C 
ENDBRANCH  12  15
ENDBRANCH   1  11
TORSDOF 2
ENDMDL
MODEL 2
REMARK VINA RESULT:    -7.501      2.783      3.557
REMARK INTER + INTRA:          -8.695
REMARK INTER:                  -8.366
REMARK INTRA:                  -0.329
REMARK UNBOUND:                -0.317
REMARK SMILES O=C(N[C@H]1CN2CCC1CC2)c1cc2cccc(Cl)c2s1
REMARK SMILES IDX 12 1 13 2 14 3 20 4 18 5 17 6 16 7 15 8 21 9 19 10 2 11 3 12
REMARK SMILES IDX 1 13 4 15 9 16 5 17 8 18 10 19 6 20 7 21 11 22
REMARK H PARENT 3 14
ROOT
ATOM      1  C   UNL     1     143.774 139.878  90.107  1.00  0.00     0.093 A 
ATOM      2  C   UNL     1     144.325 140.150  88.902  1.00  0.00     0.034 A 
ATOM      3  C   UNL     1     145.599 140.808  88.840  1.00  0.00    -0.005 A 
ATOM      4  C   UNL     1     146.149 141.102  90.136  1.00  0.00     0.054 A 
ATOM      5  C   UNL     1     147.367 141.731  90.232  1.00  0.00     0.058 A 
ATOM      6  C   UNL     1     148.064 142.080  89.072  1.00  0.00     0.022 A 
ATOM      7  C   UNL     1     147.523 141.791  87.807  1.00  0.00     0.002 A 
ATOM      8  C   UNL     1     146.287 141.153  87.707  1.00  0.00     0.010 A 
ATOM      9  S   UNL     1     144.900 140.469  91.296  1.00  0.00    -0.128 S 
ATOM     10  Cl  UNL     1     148.057 142.102  91.834  1.00  0.00    -0.083 Cl
ENDROOT
BRANCH   1  11
ATOM     11  C   UNL     1     142.427 139.186  90.342  1.00  0.00     0.261 C 
ATOM     12  N   UNL     1     141.191 139.818  89.922  1.00  0.00    -0.347 N 
ATOM     13  O   UNL     1     142.396 138.128  90.872  1.00  0.00    -0.268 OA
ATOM     14  H   UNL     1     141.207 140.698  89.483  1.00  0.00     0.164 HD
BRANCH  12  15
ATOM     15  C   UNL     1     139.902 139.128  90.161  1.00  0.00     0.099 C 
ATOM     16  C   UNL     1     139.473 138.437  88.949  1.00  0.00     0.015 C 
ATOM     17  C   UNL     1     138.818 140.156  90.539  1.00  0.00     0.109 C 
ATOM     18  C   UNL     1     138.202 137.818  89.201  1.00  0.00     0.021 C 
ATOM     19  C   UNL     1     139.301 139.429  87.891  1.00  0.00     0.021 C 
ATOM     20  N   UNL     1     137.743 140.109  89.647  1.00  0.00    -0.301 NA
ATOM     21  C   UNL     1     137.194 138.846  89.623  1.00  0.00     0.085 C 
ATOM     22  C   UNL     1     138.190 140.449  88.346  1.00  0.00     0.085 C 
ENDBRANCH  12  15
ENDBRANCH   1  11
TORSDOF 2
ENDMDL
MODEL 3
REMARK VINA RESULT:    -7.439      3.233      3.945
REMARK INTER + INTRA:          -8.626
REMARK INTER:                  -8.314
REMARK INTRA:                  -0.312
REMARK UNBOUND:                -0.317
REMARK SMILES O=C(N[C@H]1CN2CCC1CC2)c1cc2cccc(Cl)c2s1
REMARK SMILES IDX 12 1 13 2 14 3 20 4 18 5 17 6 16 7 15 8 21 9 19 10 2 11 3 12
REMARK SMILES IDX 1 13 4 15 9 16 5 17 8 18 10 19 6 20 7 21 11 22
REMARK H PARENT 3 14
ROOT
ATOM      1  C   UNL     1     143.905 140.044  89.426  1.00  0.00     0.093 A 
ATOM      2  C   UNL     1     144.942 140.686  90.012  1.00  0.00     0.034 A 
ATOM      3  C   UNL     1     146.035 141.146  89.203  1.00  0.00    -0.005 A 
ATOM      4  C   UNL     1     145.870 140.850  87.805  1.00  0.00     0.054 A 
ATOM      5  C   UNL     1     146.839 141.232  86.908  1.00  0.00     0.058 A 
ATOM      6  C   UNL     1     147.978 141.907  87.360  1.00  0.00     0.022 A 
ATOM      7  C   UNL     1     148.135 142.193  88.727  1.00  0.00     0.002 A 
ATOM      8  C   UNL     1     147.153 141.805  89.639  1.00  0.00     0.010 A 
ATOM      9  S   UNL     1     144.272 139.986  87.726  1.00  0.00    -0.128 S 
ATOM     10  Cl  UNL     1     146.645 140.870  85.174  1.00  0.00    -0.083 Cl
ENDROOT
BRANCH   1  11
ATOM     11  C   UNL     1     142.670 139.493  90.147  1.00  0.00     0.261 C 
ATOM     12  N   UNL     1     141.336 139.816  89.679  1.00  0.00    -0.347 N 
ATOM     13  O   UNL     1     142.807 138.799  91.097  1.00  0.00    -0.268 OA
ATOM     14  H   UNL     1     141.213 140.394  88.892  1.00  0.00     0.164 HD
BRANCH  12  15
ATOM     15  C   UNL     1     140.160 139.270  90.394  1.00  0.00     0.099 C 
ATOM     16  C   UNL     1     139.581 138.166  89.635  1.00  0.00     0.015 C 
ATOM     17  C   UNL     1     139.085 140.364  90.549  1.00  0.00     0.109 C 
ATOM     18  C   UNL     1     138.419 137.691  90.332  1.00  0.00     0.021 C 
ATOM     19  C   UNL     1     139.161 138.674  88.331  1.00  0.00     0.021 C 
ATOM     20  N   UNL     1     137.880 139.977  89.955  1.00  0.00    -0.301 NA
ATOM     21  C   UNL     1     137.427 138.801  90.513  1.00  0.00     0.085 C 
ATOM     22  C   UNL     1     138.073 139.791  88.564  1.00  0.00     0.085 C 
ENDBRANCH  12  15
ENDBRANCH   1  11
TORSDOF 2
ENDMDL
MODEL 4
REMARK VINA RESULT:    -6.983      1.573      2.259
REMARK INTER + INTRA:          -8.117
REMARK INTER:                  -7.802
REMARK INTRA:                  -0.314
REMARK UNBOUND:                -0.317
REMARK SMILES O=C(N[C@H]1CN2CCC1CC2)c1cc2cccc(Cl)c2s1
REMARK SMILES IDX 12 1 13 2 14 3 20 4 18 5 17 6 16 7 15 8 21 9 19 10 2 11 3 12
REMARK SMILES IDX 1 13 4 15 9 16 5 17 8 18 10 19 6 20 7 21 11 22
REMARK H PARENT 3 14
ROOT
ATOM      1  C   UNL     1     143.567 139.670  90.645  1.00  0.00     0.093 A 
ATOM      2  C   UNL     1     144.427 140.312  89.821  1.00  0.00     0.034 A 
ATOM      3  C   UNL     1     145.811 139.933  89.812  1.00  0.00    -0.005 A 
ATOM      4  C   UNL     1     146.113 138.863  90.725  1.00  0.00     0.054 A 
ATOM      5  C   UNL     1     147.401 138.394  90.822  1.00  0.00     0.058 A 
ATOM      6  C   UNL     1     148.409 138.957  90.034  1.00  0.00     0.022 A 
ATOM      7  C   UNL     1     148.110 140.003  89.144  1.00  0.00     0.002 A 
ATOM      8  C   UNL     1     146.803 140.481  89.043  1.00  0.00     0.010 A 
ATOM      9  S   UNL     1     144.512 138.484  91.498  1.00  0.00    -0.128 S 
ATOM     10  Cl  UNL     1     147.786 137.069  91.952  1.00  0.00    -0.083 Cl
ENDROOT
BRANCH   1  11
ATOM     11  C   UNL     1     142.067 139.957  90.774  1.00  0.00     0.261 C 
ATOM     12  N   UNL     1     141.093 139.094  90.135  1.00  0.00    -0.347 N 
ATOM     13  O   UNL     1     141.701 140.895  91.399  1.00  0.00    -0.268 OA
ATOM     14  H   UNL     1     141.388 138.314  89.612  1.00  0.00     0.164 HD
BRANCH  12  15
ATOM     15  C   UNL     1     139.650 139.394  90.276  1.00  0.00     0.099 C 
ATOM     16  C   UNL     1     138.933 138.203  90.723  1.00  0.00     0.015 C 
ATOM     17  C   UNL     1     139.067 139.824  88.915  1.00  0.00     0.109 C 
ATOM     18  C   UNL     1     137.533 138.516  90.805  1.00  0.00     0.021 C 
ATOM     19  C   UNL     1     139.113 137.155  89.722  1.00  0.00     0.021 C 
ATOM     20  N   UNL     1     138.021 138.984  88.524  1.00  0.00    -0.301 NA
ATOM     21  C   UNL     1     137.024 138.987  89.475  1.00  0.00     0.085 C 
ATOM     22  C   UNL     1     138.506 137.664  88.359  1.00  0.00     0.085 C 
ENDBRANCH  12  15
ENDBRANCH   1  11
TORSDOF 2
ENDMDL
MODEL 5
REMARK VINA RESULT:    -6.629      3.323      7.858
REMARK INTER + INTRA:          -7.721
REMARK INTER:                  -7.395
REMARK INTRA:                  -0.326
REMARK UNBOUND:                -0.317
REMARK SMILES O=C(N[C@H]1CN2CCC1CC2)c1cc2cccc(Cl)c2s1
REMARK SMILES IDX 12 1 13 2 14 3 20 4 18 5 17 6 16 7 15 8 21 9 19 10 2 11 3 12
REMARK SMILES IDX 1 13 4 15 9 16 5 17 8 18 10 19 6 20 7 21 11 22
REMARK H PARENT 3 14
ROOT
ATOM      1  C   UNL     1     142.874 138.445  91.013  1.00  0.00     0.093 A 
ATOM      2  C   UNL     1     142.112 137.329  90.959  1.00  0.00     0.034 A 
ATOM      3  C   UNL     1     140.770 137.413  90.457  1.00  0.00    -0.005 A 
ATOM      4  C   UNL     1     140.397 138.743  90.054  1.00  0.00     0.054 A 
ATOM      5  C   UNL     1     139.140 138.975  89.551  1.00  0.00     0.058 A 
ATOM      6  C   UNL     1     138.231 137.919  89.433  1.00  0.00     0.022 A 
ATOM      7  C   UNL     1     138.598 136.621  89.829  1.00  0.00     0.002 A 
ATOM      8  C   UNL     1     139.875 136.383  90.340  1.00  0.00     0.010 A 
ATOM      9  S   UNL     1     141.882 139.735  90.393  1.00  0.00    -0.128 S 
ATOM     10  Cl  UNL     1     138.667 140.619  89.049  1.00  0.00    -0.083 Cl
ENDROOT
BRANCH   1  11
ATOM     11  C   UNL     1     144.317 138.522  91.522  1.00  0.00     0.261 C 
ATOM     12  N   UNL     1     145.231 137.415  91.317  1.00  0.00    -0.347 N 
ATOM     13  O   UNL     1     144.687 139.493  92.090  1.00  0.00    -0.268 OA
ATOM     14  H   UNL     1     144.931 136.604  90.848  1.00  0.00     0.164 HD
BRANCH  12  15
ATOM     15  C   UNL     1     146.621 137.515  91.820  1.00  0.00     0.099 C 
ATOM     16  C   UNL     1     147.527 137.840  90.723  1.00  0.00     0.015 C 
ATOM     17  C   UNL     1     147.059 136.166  92.423  1.00  0.00     0.109 C 
ATOM     18  C   UNL     1     148.868 137.884  91.235  1.00  0.00     0.021 C 
ATOM     19  C   UNL     1     147.448 136.772  89.729  1.00  0.00     0.021 C 
ATOM     20  N   UNL     1     148.195 135.669  91.778  1.00  0.00    -0.301 NA
ATOM     21  C   UNL     1     149.231 136.572  91.866  1.00  0.00     0.085 C 
ATOM     22  C   UNL     1     147.899 135.426  90.414  1.00  0.00     0.085 C 
ENDBRANCH  12  15
ENDBRANCH   1  11
TORSDOF 2
ENDMDL
MODEL 6
REMARK VINA RESULT:    -6.450      2.747      3.352
REMARK INTER + INTRA:          -7.521
REMARK INTER:                  -7.238
REMARK INTRA:                  -0.283
REMARK UNBOUND:                -0.317
REMARK SMILES O=C(N[C@H]1CN2CCC1CC2)c1cc2cccc(Cl)c2s1
REMARK SMILES IDX 12 1 13 2 14 3 20 4 18 5 17 6 16 7 15 8 21 9 19 10 2 11 3 12
REMARK SMILES IDX 1 13 4 15 9 16 5 17 8 18 10 19 6 20 7 21 11 22
REMARK H PARENT 3 14
ROOT
ATOM      1  C   UNL     1     143.644 139.759  90.744  1.00  0.00     0.093 A 
ATOM      2  C   UNL     1     144.261 140.081  91.904  1.00  0.00     0.034 A 
ATOM      3  C   UNL     1     145.521 140.768  91.866  1.00  0.00    -0.005 A 
ATOM      4  C   UNL     1     145.980 141.039  90.530  1.00  0.00     0.054 A 
ATOM      5  C   UNL     1     147.173 141.693  90.339  1.00  0.00     0.058 A 
ATOM      6  C   UNL     1     147.932 142.092  91.444  1.00  0.00     0.022 A 
ATOM      7  C   UNL     1     147.481 141.826  92.747  1.00  0.00     0.002 A 
ATOM      8  C   UNL     1     146.270 141.161  92.944  1.00  0.00     0.010 A 
ATOM      9  S   UNL     1     144.677 140.342  89.470  1.00  0.00    -0.128 S 
ATOM     10  Cl  UNL     1     147.753 142.032  88.688  1.00  0.00    -0.083 Cl
ENDROOT
BRANCH   1  11
ATOM     11  C   UNL     1     142.303 139.028  90.614  1.00  0.00     0.261 C 
ATOM     12  N   UNL     1     141.094 139.757  90.286  1.00  0.00    -0.347 N 
ATOM     13  O   UNL     1     142.256 137.857  90.787  1.00  0.00    -0.268 OA
ATOM     14  H   UNL     1     141.124 140.730  90.144  1.00  0.00     0.164 HD
BRANCH  12  15
ATOM     15  C   UNL     1     139.811 139.026  90.168  1.00  0.00     0.099 C 
ATOM     16  C   UNL     1     139.605 138.598  88.788  1.00  0.00     0.015 C 
ATOM     17  C   UNL     1     138.642 139.948  90.566  1.00  0.00     0.109 C 
ATOM     18  C   UNL     1     138.335 137.934  88.699  1.00  0.00     0.021 C 
ATOM     19  C   UNL     1     139.564 139.786  87.939  1.00  0.00     0.021 C 
ATOM     20  N   UNL     1     137.724 140.081  89.521  1.00  0.00    -0.301 NA
ATOM     21  C   UNL     1     137.234 138.847  89.153  1.00  0.00     0.085 C 
ATOM     22  C   UNL     1     138.356 140.685  88.406  1.00  0.00     0.085 C 
ENDBRANCH  12  15
ENDBRANCH   1  11
TORSDOF 2
ENDMDL
MODEL 7
REMARK VINA RESULT:    -6.409      3.318      7.958
REMARK INTER + INTRA:          -7.475
REMARK INTER:                  -7.180
REMARK INTRA:                  -0.295
REMARK UNBOUND:                -0.317
REMARK SMILES O=C(N[C@H]1CN2CCC1CC2)c1cc2cccc(Cl)c2s1
REMARK SMILES IDX 12 1 13 2 14 3 20 4 18 5 17 6 16 7 15 8 21 9 19 10 2 11 3 12
REMARK SMILES IDX 1 13 4 15 9 16 5 17 8 18 10 19 6 20 7 21 11 22
REMARK H PARENT 3 14
ROOT
ATOM      1  C   UNL     1     142.566 138.718  90.529  1.00  0.00     0.093 A 
ATOM      2  C   UNL     1     141.593 139.613  90.244  1.00  0.00     0.034 A 
ATOM      3  C   UNL     1     140.232 139.168  90.144  1.00  0.00    -0.005 A 
ATOM      4  C   UNL     1     140.078 137.757  90.376  1.00  0.00     0.054 A 
ATOM      5  C   UNL     1     138.828 137.188  90.313  1.00  0.00     0.058 A 
ATOM      6  C   UNL     1     137.715 137.985  90.027  1.00  0.00     0.022 A 
ATOM      7  C   UNL     1     137.869 139.363  89.800  1.00  0.00     0.002 A 
ATOM      8  C   UNL     1     139.137 139.942  89.863  1.00  0.00     0.010 A 
ATOM      9  S   UNL     1     141.771 137.179  90.699  1.00  0.00    -0.128 S 
ATOM     10  Cl  UNL     1     138.626 135.440  90.597  1.00  0.00    -0.083 Cl
ENDROOT
BRANCH   1  11
ATOM     11  C   UNL     1     144.060 139.031  90.667  1.00  0.00     0.261 C 
ATOM     12  N   UNL     1     145.006 137.984  91.002  1.00  0.00    -0.347 N 
ATOM     13  O   UNL     1     144.443 140.140  90.502  1.00  0.00    -0.268 OA
ATOM     14  H   UNL     1     144.695 137.062  91.144  1.00  0.00     0.164 HD
BRANCH  12  15
ATOM     15  C   UNL     1     146.444 138.315  91.130  1.00  0.00     0.099 C 
ATOM     16  C   UNL     1     147.128 138.068  89.864  1.00  0.00     0.015 C 
ATOM     17  C   UNL     1     147.093 137.428  92.210  1.00  0.00     0.109 C 
ATOM     18  C   UNL     1     148.525 138.354  90.035  1.00  0.00     0.021 C 
ATOM     19  C   UNL     1     146.985 136.652  89.533  1.00  0.00     0.021 C 
ATOM     20  N   UNL     1     148.149 136.679  91.682  1.00  0.00    -0.301 NA
ATOM     21  C   UNL     1     149.100 137.512  91.136  1.00  0.00     0.085 C 
ATOM     22  C   UNL     1     147.659 135.806  90.680  1.00  0.00     0.085 C 
ENDBRANCH  12  15
ENDBRANCH   1  11
TORSDOF 2
ENDMDL
MODEL 8
REMARK VINA RESULT:    -6.337      4.493      5.592
REMARK INTER + INTRA:          -7.395
REMARK INTER:                  -7.076
REMARK INTRA:                  -0.319
REMARK UNBOUND:                -0.317
REMARK SMILES O=C(N[C@H]1CN2CCC1CC2)c1cc2cccc(Cl)c2s1
REMARK SMILES IDX 12 1 13 2 14 3 20 4 18 5 17 6 16 7 15 8 21 9 19 10 2 11 3 12
REMARK SMILES IDX 1 13 4 15 9 16 5 17 8 18 10 19 6 20 7 21 11 22
REMARK H PARENT 3 14
ROOT
ATOM      1  C   UNL     1     144.373 139.720  92.870  1.00  0.00     0.093 A 
ATOM      2  C   UNL     1     143.642 138.644  92.498  1.00  0.00     0.034 A 
ATOM      3  C   UNL     1     144.309 137.417  92.170  1.00  0.00    -0.005 A 
ATOM      4  C   UNL     1     145.740 137.499  92.290  1.00  0.00     0.054 A 
ATOM      5  C   UNL     1     146.512 136.397  92.008  1.00  0.00     0.058 A 
ATOM      6  C   UNL     1     145.902 135.204  91.607  1.00  0.00     0.022 A 
ATOM      7  C   UNL     1     144.504 135.128  91.490  1.00  0.00     0.002 A 
ATOM      8  C   UNL     1     143.718 136.245  91.776  1.00  0.00     0.010 A 
ATOM      9  S   UNL     1     146.037 139.210  92.826  1.00  0.00    -0.128 S 
ATOM     10  Cl  UNL     1     148.287 136.488  92.152  1.00  0.00    -0.083 Cl
ENDROOT
BRANCH   1  11
ATOM     11  C   UNL     1     143.814 141.096  93.248  1.00  0.00     0.261 C 
ATOM     12  N   UNL     1     142.890 141.238  94.356  1.00  0.00    -0.347 N 
ATOM     13  O   UNL     1     144.139 142.051  92.627  1.00  0.00    -0.268 OA
ATOM     14  H   UNL     1     142.613 140.449  94.876  1.00  0.00     0.164 HD
BRANCH  12  15
ATOM     15  C   UNL     1     142.365 142.579  94.700  1.00  0.00     0.099 C 
ATOM     16  C   UNL     1     142.524 142.827  96.130  1.00  0.00     0.015 C 
ATOM     17  C   UNL     1     140.863 142.658  94.362  1.00  0.00     0.109 C 
ATOM     18  C   UNL     1     141.964 144.114  96.436  1.00  0.00     0.021 C 
ATOM     19  C   UNL     1     141.769 141.811  96.859  1.00  0.00     0.021 C 
ATOM     20  N   UNL     1     140.105 142.968  95.494  1.00  0.00    -0.301 NA
ATOM     21  C   UNL     1     140.520 144.165  96.035  1.00  0.00     0.085 C 
ATOM     22  C   UNL     1     140.250 141.942  96.460  1.00  0.00     0.085 C 
ENDBRANCH  12  15
ENDBRANCH   1  11
TORSDOF 2
ENDMDL
MODEL 9
REMARK VINA RESULT:    -6.313      4.676      7.778
REMARK INTER + INTRA:          -7.368
REMARK INTER:                  -7.053
REMARK INTRA:                  -0.315
REMARK UNBOUND:                -0.317
REMARK SMILES O=C(N[C@H]1CN2CCC1CC2)c1cc2cccc(Cl)c2s1
REMARK SMILES IDX 12 1 13 2 14 3 20 4 18 5 17 6 16 7 15 8 21 9 19 10 2 11 3 12
REMARK SMILES IDX 1 13 4 15 9 16 5 17 8 18 10 19 6 20 7 21 11 22
REMARK H PARENT 3 14
ROOT
ATOM      1  C   UNL     1     144.027 140.778  93.028  1.00  0.00     0.093 A 
ATOM      2  C   UNL     1     142.926 141.166  92.344  1.00  0.00     0.034 A 
ATOM      3  C   UNL     1     141.882 141.873  93.030  1.00  0.00    -0.005 A 
ATOM      4  C   UNL     1     142.164 142.089  94.424  1.00  0.00     0.054 A 
ATOM      5  C   UNL     1     141.252 142.755  95.208  1.00  0.00     0.058 A 
ATOM      6  C   UNL     1     140.059 143.220  94.646  1.00  0.00     0.022 A 
ATOM      7  C   UNL     1     139.787 143.007  93.284  1.00  0.00     0.002 A 
ATOM      8  C   UNL     1     140.711 142.330  92.486  1.00  0.00     0.010 A 
ATOM      9  S   UNL     1     143.793 141.319  94.666  1.00  0.00    -0.128 S 
ATOM     10  Cl  UNL     1     141.590 143.026  96.937  1.00  0.00    -0.083 Cl
ENDROOT
BRANCH   1  11
ATOM     11  C   UNL     1     145.223 140.017  92.444  1.00  0.00     0.261 C 
ATOM     12  N   UNL     1     145.061 138.670  91.932  1.00  0.00    -0.347 N 
ATOM     13  O   UNL     1     146.288 140.534  92.415  1.00  0.00    -0.268 OA
ATOM     14  H   UNL     1     144.179 138.233  91.955  1.00  0.00     0.164 HD
BRANCH  12  15
ATOM     15  C   UNL     1     146.232 137.958  91.373  1.00  0.00     0.099 C 
ATOM     16  C   UNL     1     145.848 137.232  90.166  1.00  0.00     0.015 C 
ATOM     17  C   UNL     1     146.764 136.937  92.399  1.00  0.00     0.109 C 
ATOM     18  C   UNL     1     146.993 136.517  89.678  1.00  0.00     0.021 C 
ATOM     19  C   UNL     1     144.816 136.262  90.522  1.00  0.00     0.021 C 
ATOM     20  N   UNL     1     146.754 135.641  91.876  1.00  0.00    -0.301 NA
ATOM     21  C   UNL     1     147.513 135.581  90.729  1.00  0.00     0.085 C 
ATOM     22  C   UNL     1     145.423 135.260  91.577  1.00  0.00     0.085 C 
ENDBRANCH  12  15
ENDBRANCH   1  11
TORSDOF 2
ENDMDL
MODEL 10
REMARK VINA RESULT:    -6.296      3.950      7.772
REMARK INTER + INTRA:          -7.349
REMARK INTER:                  -7.038
REMARK INTRA:                  -0.311
REMARK UNBOUND:                -0.317
REMARK SMILES O=C(N[C@H]1CN2CCC1CC2)c1cc2cccc(Cl)c2s1
REMARK SMILES IDX 12 1 13 2 14 3 20 4 18 5 17 6 16 7 15 8 21 9 19 10 2 11 3 12
REMARK SMILES IDX 1 13 4 15 9 16 5 17 8 18 10 19 6 20 7 21 11 22
REMARK H PARENT 3 14
ROOT
ATOM      1  C   UNL     1     142.571 138.908  90.475  1.00  0.00     0.093 A 
ATOM      2  C   UNL     1     141.531 139.718  90.172  1.00  0.00     0.034 A 
ATOM      3  C   UNL     1     140.207 139.169  90.097  1.00  0.00    -0.005 A 
ATOM      4  C   UNL     1     140.161 137.758  90.371  1.00  0.00     0.054 A 
ATOM      5  C   UNL     1     138.958 137.095  90.337  1.00  0.00     0.058 A 
ATOM      6  C   UNL     1     137.786 137.796  90.036  1.00  0.00     0.022 A 
ATOM      7  C   UNL     1     137.835 139.175  89.768  1.00  0.00     0.002 A 
ATOM      8  C   UNL     1     139.055 139.850  89.802  1.00  0.00     0.010 A 
ATOM      9  S   UNL     1     141.895 137.319  90.697  1.00  0.00    -0.128 S 
ATOM     10  Cl  UNL     1     138.890 135.346  90.674  1.00  0.00    -0.083 Cl
ENDROOT
BRANCH   1  11
ATOM     11  C   UNL     1     144.038 139.337  90.592  1.00  0.00     0.261 C 
ATOM     12  N   UNL     1     144.765 139.802  89.426  1.00  0.00    -0.347 N 
ATOM     13  O   UNL     1     144.582 139.286  91.642  1.00  0.00    -0.268 OA
ATOM     14  H   UNL     1     144.321 139.846  88.549  1.00  0.00     0.164 HD
BRANCH  12  15
ATOM     15  C   UNL     1     146.181 140.211  89.566  1.00  0.00     0.099 C 
ATOM     16  C   UNL     1     146.436 141.410  88.774  1.00  0.00     0.015 C 
ATOM     17  C   UNL     1     147.105 139.089  89.053  1.00  0.00     0.109 C 
ATOM     18  C   UNL     1     147.826 141.752  88.895  1.00  0.00     0.021 C 
ATOM     19  C   UNL     1     146.158 141.103  87.373  1.00  0.00     0.021 C 
ATOM     20  N   UNL     1     147.926 139.544  88.017  1.00  0.00    -0.301 NA
ATOM     21  C   UNL     1     148.687 140.611  88.442  1.00  0.00     0.085 C 
ATOM     22  C   UNL     1     147.127 139.947  86.919  1.00  0.00     0.085 C 
ENDBRANCH  12  15
ENDBRANCH   1  11
TORSDOF 2
ENDMDL
MODEL 11
REMARK VINA RESULT:    -6.159      4.979      7.771
REMARK INTER + INTRA:          -7.196
REMARK INTER:                  -6.881
REMARK INTRA:                  -0.315
REMARK UNBOUND:                -0.317
REMARK SMILES O=C(N[C@H]1CN2CCC1CC2)c1cc2cccc(Cl)c2s1
REMARK SMILES IDX 12 1 13 2 14 3 20 4 18 5 17 6 16 7 15 8 21 9 19 10 2 11 3 12
REMARK SMILES IDX 1 13 4 15 9 16 5 17 8 18 10 19 6 20 7 21 11 22
REMARK H PARENT 3 14
ROOT
ATOM      1  C   UNL     1     143.763 140.774  93.176  1.00  0.00     0.093 A 
ATOM      2  C   UNL     1     143.556 140.822  94.513  1.00  0.00     0.034 A 
ATOM      3  C   UNL     1     142.406 141.510  95.025  1.00  0.00    -0.005 A 
ATOM      4  C   UNL     1     141.582 142.083  93.994  1.00  0.00     0.054 A 
ATOM      5  C   UNL     1     140.443 142.772  94.337  1.00  0.00     0.058 A 
ATOM      6  C   UNL     1     140.092 142.910  95.684  1.00  0.00     0.022 A 
ATOM      7  C   UNL     1     140.900 142.350  96.687  1.00  0.00     0.002 A 
ATOM      8  C   UNL     1     142.057 141.650  96.342  1.00  0.00     0.010 A 
ATOM      9  S   UNL     1     142.438 141.641  92.453  1.00  0.00    -0.128 S 
ATOM     10  Cl  UNL     1     139.415 143.487  93.068  1.00  0.00    -0.083 Cl
ENDROOT
BRANCH   1  11
ATOM     11  C   UNL     1     144.938 140.084  92.475  1.00  0.00     0.261 C 
ATOM     12  N   UNL     1     144.879 138.672  92.152  1.00  0.00    -0.347 N 
ATOM     13  O   UNL     1     145.904 140.711  92.198  1.00  0.00    -0.268 OA
ATOM     14  H   UNL     1     144.081 138.144  92.381  1.00  0.00     0.164 HD
BRANCH  12  15
ATOM     15  C   UNL     1     146.029 138.031  91.474  1.00  0.00     0.099 C 
ATOM     16  C   UNL     1     145.573 137.309  90.290  1.00  0.00     0.015 C 
ATOM     17  C   UNL     1     146.702 137.021  92.424  1.00  0.00     0.109 C 
ATOM     18  C   UNL     1     146.703 136.662  89.685  1.00  0.00     0.021 C 
ATOM     19  C   UNL     1     144.627 136.280  90.716  1.00  0.00     0.021 C 
ATOM     20  N   UNL     1     146.708 135.736  91.876  1.00  0.00    -0.301 NA
ATOM     21  C   UNL     1     147.363 135.736  90.663  1.00  0.00     0.085 C 
ATOM     22  C   UNL     1     145.376 135.292  91.688  1.00  0.00     0.085 C 
ENDBRANCH  12  15
ENDBRANCH   1  11
TORSDOF 2
ENDMDL
MODEL 12
REMARK VINA RESULT:    -6.085      4.634      5.196
REMARK INTER + INTRA:          -7.113
REMARK INTER:                  -6.823
REMARK INTRA:                  -0.290
REMARK UNBOUND:                -0.317
REMARK SMILES O=C(N[C@H]1CN2CCC1CC2)c1cc2cccc(Cl)c2s1
REMARK SMILES IDX 12 1 13 2 14 3 20 4 18 5 17 6 16 7 15 8 21 9 19 10 2 11 3 12
REMARK SMILES IDX 1 13 4 15 9 16 5 17 8 18 10 19 6 20 7 21 11 22
REMARK H PARENT 3 14
ROOT
ATOM      1  C   UNL     1     142.623 140.459  86.075  1.00  0.00     0.093 A 
ATOM      2  C   UNL     1     143.727 140.073  86.754  1.00  0.00     0.034 A 
ATOM      3  C   UNL     1     145.013 140.171  86.125  1.00  0.00    -0.005 A 
ATOM      4  C   UNL     1     144.952 140.696  84.787  1.00  0.00     0.054 A 
ATOM      5  C   UNL     1     146.109 140.847  84.061  1.00  0.00     0.058 A 
ATOM      6  C   UNL     1     147.337 140.490  84.626  1.00  0.00     0.022 A 
ATOM      7  C   UNL     1     147.393 139.977  85.933  1.00  0.00     0.002 A 
ATOM      8  C   UNL     1     146.220 139.822  86.672  1.00  0.00     0.010 A 
ATOM      9  S   UNL     1     143.180 140.999  84.517  1.00  0.00    -0.128 S 
ATOM     10  Cl  UNL     1     146.044 141.495  82.401  1.00  0.00    -0.083 Cl
ENDROOT
BRANCH   1  11
ATOM     11  C   UNL     1     141.184 140.415  86.603  1.00  0.00     0.261 C 
ATOM     12  N   UNL     1     140.890 139.821  87.892  1.00  0.00    -0.347 N 
ATOM     13  O   UNL     1     140.307 140.868  85.949  1.00  0.00    -0.268 OA
ATOM     14  H   UNL     1     141.613 139.441  88.440  1.00  0.00     0.164 HD
BRANCH  12  15
ATOM     15  C   UNL     1     139.492 139.792  88.379  1.00  0.00     0.099 C 
ATOM     16  C   UNL     1     139.469 139.820  89.838  1.00  0.00     0.015 C 
ATOM     17  C   UNL     1     138.800 138.496  87.911  1.00  0.00     0.109 C 
ATOM     18  C   UNL     1     138.103 139.744  90.276  1.00  0.00     0.021 C 
ATOM     19  C   UNL     1     140.177 138.642  90.332  1.00  0.00     0.021 C 
ATOM     20  N   UNL     1     138.333 137.752  88.998  1.00  0.00    -0.301 NA
ATOM     21  C   UNL     1     137.453 138.500  89.749  1.00  0.00     0.085 C 
ATOM     22  C   UNL     1     139.425 137.359  89.810  1.00  0.00     0.085 C 
ENDBRANCH  12  15
ENDBRANCH   1  11
TORSDOF 2
ENDMDL
MODEL 13
REMARK VINA RESULT:    -6.035      1.753      2.460
REMARK INTER + INTRA:          -7.057
REMARK INTER:                  -6.752
REMARK INTRA:                  -0.305
REMARK UNBOUND:                -0.317
REMARK SMILES O=C(N[C@H]1CN2CCC1CC2)c1cc2cccc(Cl)c2s1
REMARK SMILES IDX 12 1 13 2 14 3 20 4 18 5 17 6 16 7 15 8 21 9 19 10 2 11 3 12
REMARK SMILES IDX 1 13 4 15 9 16 5 17 8 18 10 19 6 20 7 21 11 22
REMARK H PARENT 3 14
ROOT
ATOM      1  C   UNL     1     143.282 137.494  90.771  1.00  0.00     0.093 A 
ATOM      2  C   UNL     1     143.926 138.646  91.070  1.00  0.00     0.034 A 
ATOM      3  C   UNL     1     145.356 138.643  91.192  1.00  0.00    -0.005 A 
ATOM      4  C   UNL     1     145.943 137.350  90.966  1.00  0.00     0.054 A 
ATOM      5  C   UNL     1     147.306 137.196  91.050  1.00  0.00     0.058 A 
ATOM      6  C   UNL     1     148.114 138.297  91.352  1.00  0.00     0.022 A 
ATOM      7  C   UNL     1     147.536 139.559  91.573  1.00  0.00     0.002 A 
ATOM      8  C   UNL     1     146.153 139.717  91.490  1.00  0.00     0.010 A 
ATOM      9  S   UNL     1     144.517 136.277  90.617  1.00  0.00    -0.128 S 
ATOM     10  Cl  UNL     1     148.044 135.597  90.772  1.00  0.00    -0.083 Cl
ENDROOT
BRANCH   1  11
ATOM     11  C   UNL     1     141.767 137.330  90.609  1.00  0.00     0.261 C 
ATOM     12  N   UNL     1     140.926 138.481  90.339  1.00  0.00    -0.347 N 
ATOM     13  O   UNL     1     141.280 136.255  90.707  1.00  0.00    -0.268 OA
ATOM     14  H   UNL     1     141.322 139.377  90.258  1.00  0.00     0.164 HD
BRANCH  12  15
ATOM     15  C   UNL     1     139.465 138.295  90.187  1.00  0.00     0.099 C 
ATOM     16  C   UNL     1     139.131 138.090  88.780  1.00  0.00     0.015 C 
ATOM     17  C   UNL     1     138.721 139.551  90.680  1.00  0.00     0.109 C 
ATOM     18  C   UNL     1     137.705 137.959  88.663  1.00  0.00     0.021 C 
ATOM     19  C   UNL     1     139.548 139.272  88.032  1.00  0.00     0.021 C 
ATOM     20  N   UNL     1     137.933 140.104  89.667  1.00  0.00    -0.301 NA
ATOM     21  C   UNL     1     137.021 139.177  89.209  1.00  0.00     0.085 C 
ATOM     22  C   UNL     1     138.759 140.516  88.592  1.00  0.00     0.085 C 
ENDBRANCH  12  15
ENDBRANCH   1  11
TORSDOF 2
ENDMDL
MODEL 14
REMARK VINA RESULT:    -6.021      4.865      8.503
REMARK INTER + INTRA:          -7.042
REMARK INTER:                  -6.721
REMARK INTRA:                  -0.321
REMARK UNBOUND:                -0.317
REMARK SMILES O=C(N[C@H]1CN2CCC1CC2)c1cc2cccc(Cl)c2s1
REMARK SMILES IDX 12 1 13 2 14 3 20 4 18 5 17 6 16 7 15 8 21 9 19 10 2 11 3 12
REMARK SMILES IDX 1 13 4 15 9 16 5 17 8 18 10 19 6 20 7 21 11 22
REMARK H PARENT 3 14
ROOT
ATOM      1  C   UNL     1     139.641 141.398  90.458  1.00  0.00     0.093 A 
ATOM      2  C   UNL     1     139.540 142.309  91.454  1.00  0.00     0.034 A 
ATOM      3  C   UNL     1     138.716 143.469  91.270  1.00  0.00    -0.005 A 
ATOM      4  C   UNL     1     138.071 143.508  89.985  1.00  0.00     0.054 A 
ATOM      5  C   UNL     1     137.248 144.562  89.668  1.00  0.00     0.058 A 
ATOM      6  C   UNL     1     137.042 145.589  90.595  1.00  0.00     0.022 A 
ATOM      7  C   UNL     1     137.675 145.547  91.849  1.00  0.00     0.002 A 
ATOM      8  C   UNL     1     138.511 144.478  92.173  1.00  0.00     0.010 A 
ATOM      9  S   UNL     1     138.640 141.990  89.163  1.00  0.00    -0.128 S 
ATOM     10  Cl  UNL     1     136.445 144.622  88.077  1.00  0.00    -0.083 Cl
ENDROOT
BRANCH   1  11
ATOM     11  C   UNL     1     140.477 140.115  90.498  1.00  0.00     0.261 C 
ATOM     12  N   UNL     1     141.909 140.174  90.721  1.00  0.00    -0.347 N 
ATOM     13  O   UNL     1     139.949 139.066  90.343  1.00  0.00    -0.268 OA
ATOM     14  H   UNL     1     142.356 141.041  90.849  1.00  0.00     0.164 HD
BRANCH  12  15
ATOM     15  C   UNL     1     142.693 138.918  90.755  1.00  0.00     0.099 C 
ATOM     16  C   UNL     1     143.312 138.750  92.066  1.00  0.00     0.015 C 
ATOM     17  C   UNL     1     143.813 138.970  89.697  1.00  0.00     0.109 C 
ATOM     18  C   UNL     1     144.100 137.550  92.050  1.00  0.00     0.021 C 
ATOM     19  C   UNL     1     144.203 139.884  92.303  1.00  0.00     0.021 C 
ATOM     20  N   UNL     1     145.071 138.814  90.284  1.00  0.00    -0.301 NA
ATOM     21  C   UNL     1     145.137 137.619  90.967  1.00  0.00     0.085 C 
ATOM     22  C   UNL     1     145.313 139.881  91.184  1.00  0.00     0.085 C 
ENDBRANCH  12  15
ENDBRANCH   1  11
TORSDOF 2
ENDMDL
MODEL 15
REMARK VINA RESULT:    -6.015      5.012      6.086
REMARK INTER + INTRA:          -7.035
REMARK INTER:                  -6.723
REMARK INTRA:                  -0.313
REMARK UNBOUND:                -0.317
REMARK SMILES O=C(N[C@H]1CN2CCC1CC2)c1cc2cccc(Cl)c2s1
REMARK SMILES IDX 12 1 13 2 14 3 20 4 18 5 17 6 16 7 15 8 21 9 19 10 2 11 3 12
REMARK SMILES IDX 1 13 4 15 9 16 5 17 8 18 10 19 6 20 7 21 11 22
REMARK H PARENT 3 14
ROOT
ATOM      1  C   UNL     1     144.074 139.653  93.275  1.00  0.00     0.093 A 
ATOM      2  C   UNL     1     144.425 138.386  92.957  1.00  0.00     0.034 A 
ATOM      3  C   UNL     1     144.857 138.088  91.621  1.00  0.00    -0.005 A 
ATOM      4  C   UNL     1     144.861 139.237  90.756  1.00  0.00     0.054 A 
ATOM      5  C   UNL     1     145.253 139.102  89.446  1.00  0.00     0.058 A 
ATOM      6  C   UNL     1     145.646 137.851  88.962  1.00  0.00     0.022 A 
ATOM      7  C   UNL     1     145.640 136.730  89.810  1.00  0.00     0.002 A 
ATOM      8  C   UNL     1     145.242 136.864  91.140  1.00  0.00     0.010 A 
ATOM      9  S   UNL     1     144.284 140.591  91.824  1.00  0.00    -0.128 S 
ATOM     10  Cl  UNL     1     145.261 140.520  88.364  1.00  0.00    -0.083 Cl
ENDROOT
BRANCH   1  11
ATOM     11  C   UNL     1     143.592 140.131  94.649  1.00  0.00     0.261 C 
ATOM     12  N   UNL     1     142.916 141.406  94.791  1.00  0.00    -0.347 N 
ATOM     13  O   UNL     1     143.776 139.454  95.603  1.00  0.00    -0.268 OA
ATOM     14  H   UNL     1     142.761 141.976  94.004  1.00  0.00     0.164 HD
BRANCH  12  15
ATOM     15  C   UNL     1     142.461 141.844  96.131  1.00  0.00     0.099 C 
ATOM     16  C   UNL     1     141.025 141.621  96.269  1.00  0.00     0.015 C 
ATOM     17  C   UNL     1     142.733 143.351  96.312  1.00  0.00     0.109 C 
ATOM     18  C   UNL     1     140.609 142.097  97.558  1.00  0.00     0.021 C 
ATOM     19  C   UNL     1     140.337 142.403  95.245  1.00  0.00     0.021 C 
ATOM     20  N   UNL     1     141.553 144.050  96.580  1.00  0.00    -0.301 NA
ATOM     21  C   UNL     1     140.948 143.551  97.713  1.00  0.00     0.085 C 
ATOM     22  C   UNL     1     140.666 143.926  95.483  1.00  0.00     0.085 C 
ENDBRANCH  12  15
ENDBRANCH   1  11
TORSDOF 2
ENDMDL
MODEL 16
REMARK VINA RESULT:    -5.973      5.152      8.105
REMARK INTER + INTRA:          -6.988
REMARK INTER:                  -6.674
REMARK INTRA:                  -0.315
REMARK UNBOUND:                -0.317
REMARK SMILES O=C(N[C@H]1CN2CCC1CC2)c1cc2cccc(Cl)c2s1
REMARK SMILES IDX 12 1 13 2 14 3 20 4 18 5 17 6 16 7 15 8 21 9 19 10 2 11 3 12
REMARK SMILES IDX 1 13 4 15 9 16 5 17 8 18 10 19 6 20 7 21 11 22
REMARK H PARENT 3 14
ROOT
ATOM      1  C   UNL     1     146.794 138.445  90.855  1.00  0.00     0.093 A 
ATOM      2  C   UNL     1     147.193 137.233  91.304  1.00  0.00     0.034 A 
ATOM      3  C   UNL     1     146.218 136.198  91.504  1.00  0.00    -0.005 A 
ATOM      4  C   UNL     1     144.879 136.610  91.180  1.00  0.00     0.054 A 
ATOM      5  C   UNL     1     143.840 135.721  91.322  1.00  0.00     0.058 A 
ATOM      6  C   UNL     1     144.091 134.424  91.780  1.00  0.00     0.022 A 
ATOM      7  C   UNL     1     145.401 134.026  92.096  1.00  0.00     0.002 A 
ATOM      8  C   UNL     1     146.458 134.926  91.953  1.00  0.00     0.010 A 
ATOM      9  S   UNL     1     145.069 138.337  90.646  1.00  0.00    -0.128 S 
ATOM     10  Cl  UNL     1     142.176 136.221  90.924  1.00  0.00    -0.083 Cl
ENDROOT
BRANCH   1  11
ATOM     11  C   UNL     1     147.705 139.649  90.593  1.00  0.00     0.261 C 
ATOM     12  N   UNL     1     148.169 139.945  89.252  1.00  0.00    -0.347 N 
ATOM     13  O   UNL     1     148.035 140.341  91.496  1.00  0.00    -0.268 OA
ATOM     14  H   UNL     1     147.902 139.373  88.497  1.00  0.00     0.164 HD
BRANCH  12  15
ATOM     15  C   UNL     1     149.050 141.114  89.027  1.00  0.00     0.099 C 
ATOM     16  C   UNL     1     148.495 141.963  87.977  1.00  0.00     0.015 C 
ATOM     17  C   UNL     1     150.446 140.641  88.576  1.00  0.00     0.109 C 
ATOM     18  C   UNL     1     149.394 143.060  87.753  1.00  0.00     0.021 C 
ATOM     19  C   UNL     1     148.410 141.178  86.748  1.00  0.00     0.021 C 
ATOM     20  N   UNL     1     150.784 141.176  87.330  1.00  0.00    -0.301 NA
ATOM     21  C   UNL     1     150.755 142.553  87.376  1.00  0.00     0.085 C 
ATOM     22  C   UNL     1     149.866 140.722  86.352  1.00  0.00     0.085 C 
ENDBRANCH  12  15
ENDBRANCH   1  11
TORSDOF 2
ENDMDL
MODEL 17
REMARK VINA RESULT:    -5.951      4.830      5.759
REMARK INTER + INTRA:          -6.964
REMARK INTER:                  -6.718
REMARK INTRA:                  -0.246
REMARK UNBOUND:                -0.317
REMARK SMILES O=C(N[C@H]1CN2CCC1CC2)c1cc2cccc(Cl)c2s1
REMARK SMILES IDX 12 1 13 2 14 3 20 4 18 5 17 6 16 7 15 8 21 9 19 10 2 11 3 12
REMARK SMILES IDX 1 13 4 15 9 16 5 17 8 18 10 19 6 20 7 21 11 22
REMARK H PARENT 3 14
ROOT
ATOM      1  C   UNL     1     142.348 140.515  85.851  1.00  0.00     0.093 A 
ATOM      2  C   UNL     1     142.632 141.147  84.689  1.00  0.00     0.034 A 
ATOM      3  C   UNL     1     143.983 141.165  84.206  1.00  0.00    -0.005 A 
ATOM      4  C   UNL     1     144.902 140.469  85.067  1.00  0.00     0.054 A 
ATOM      5  C   UNL     1     146.233 140.403  84.730  1.00  0.00     0.058 A 
ATOM      6  C   UNL     1     146.685 141.011  83.555  1.00  0.00     0.022 A 
ATOM      7  C   UNL     1     145.784 141.690  82.717  1.00  0.00     0.002 A 
ATOM      8  C   UNL     1     144.433 141.759  83.057  1.00  0.00     0.010 A 
ATOM      9  S   UNL     1     143.858 139.869  86.429  1.00  0.00    -0.128 S 
ATOM     10  Cl  UNL     1     147.381 139.544  85.790  1.00  0.00    -0.083 Cl
ENDROOT
BRANCH   1  11
ATOM     11  C   UNL     1     140.963 140.408  86.499  1.00  0.00     0.261 C 
ATOM     12  N   UNL     1     140.816 139.884  87.843  1.00  0.00    -0.347 N 
ATOM     13  O   UNL     1     140.006 140.754  85.894  1.00  0.00    -0.268 OA
ATOM     14  H   UNL     1     141.607 139.592  88.351  1.00  0.00     0.164 HD
BRANCH  12  15
ATOM     15  C   UNL     1     139.467 139.792  88.445  1.00  0.00     0.099 C 
ATOM     16  C   UNL     1     139.564 139.840  89.901  1.00  0.00     0.015 C 
ATOM     17  C   UNL     1     138.806 138.456  88.051  1.00  0.00     0.109 C 
ATOM     18  C   UNL     1     138.245 139.702  90.452  1.00  0.00     0.021 C 
ATOM     19  C   UNL     1     140.370 138.706  90.345  1.00  0.00     0.021 C 
ATOM     20  N   UNL     1     138.470 137.705  89.180  1.00  0.00    -0.301 NA
ATOM     21  C   UNL     1     137.618 138.419  89.995  1.00  0.00     0.085 C 
ATOM     22  C   UNL     1     139.644 137.380  89.903  1.00  0.00     0.085 C 
ENDBRANCH  12  15
ENDBRANCH   1  11
TORSDOF 2
ENDMDL
MODEL 18
REMARK VINA RESULT:    -5.948      6.016      8.423
REMARK INTER + INTRA:          -6.960
REMARK INTER:                  -6.847
REMARK INTRA:                  -0.114
REMARK UNBOUND:                -0.317
REMARK SMILES O=C(N[C@H]1CN2CCC1CC2)c1cc2cccc(Cl)c2s1
REMARK SMILES IDX 12 1 13 2 14 3 20 4 18 5 17 6 16 7 15 8 21 9 19 10 2 11 3 12
REMARK SMILES IDX 1 13 4 15 9 16 5 17 8 18 10 19 6 20 7 21 11 22
REMARK H PARENT 3 14
ROOT
ATOM      1  C   UNL     1     138.676 141.958  88.994  1.00  0.00     0.093 A 
ATOM      2  C   UNL     1     138.035 143.142  88.852  1.00  0.00     0.034 A 
ATOM      3  C   UNL     1     137.931 144.028  89.976  1.00  0.00    -0.005 A 
ATOM      4  C   UNL     1     138.558 143.514  91.164  1.00  0.00     0.054 A 
ATOM      5  C   UNL     1     138.539 144.256  92.320  1.00  0.00     0.058 A 
ATOM      6  C   UNL     1     137.912 145.506  92.335  1.00  0.00     0.022 A 
ATOM      7  C   UNL     1     137.300 146.005  91.172  1.00  0.00     0.002 A 
ATOM      8  C   UNL     1     137.317 145.252  89.997  1.00  0.00     0.010 A 
ATOM      9  S   UNL     1     139.216 141.899  90.648  1.00  0.00    -0.128 S 
ATOM     10  Cl  UNL     1     139.312 143.628  93.799  1.00  0.00    -0.083 Cl
ENDROOT
BRANCH   1  11
ATOM     11  C   UNL     1     138.869 140.906  87.897  1.00  0.00     0.261 C 
ATOM     12  N   UNL     1     139.454 141.269  86.621  1.00  0.00    -0.347 N 
ATOM     13  O   UNL     1     138.534 139.787  88.094  1.00  0.00    -0.268 OA
ATOM     14  H   UNL     1     139.732 142.198  86.449  1.00  0.00     0.164 HD
BRANCH  12  15
ATOM     15  C   UNL     1     139.629 140.233  85.578  1.00  0.00     0.099 C 
ATOM     16  C   UNL     1     140.723 139.338  85.942  1.00  0.00     0.015 C 
ATOM     17  C   UNL     1     139.976 140.896  84.231  1.00  0.00     0.109 C 
ATOM     18  C   UNL     1     140.896 138.375  84.890  1.00  0.00     0.021 C 
ATOM     19  C   UNL     1     141.947 140.128  86.048  1.00  0.00     0.021 C 
ATOM     20  N   UNL     1     141.201 140.435  83.741  1.00  0.00    -0.301 NA
ATOM     21  C   UNL     1     141.172 139.066  83.587  1.00  0.00     0.085 C 
ATOM     22  C   UNL     1     142.236 140.783  84.644  1.00  0.00     0.085 C 
ENDBRANCH  12  15
ENDBRANCH   1  11
TORSDOF 2
ENDMDL
MODEL 19
REMARK VINA RESULT:    -5.862      3.659      7.828
REMARK INTER + INTRA:          -6.865
REMARK INTER:                  -6.563
REMARK INTRA:                  -0.302
REMARK UNBOUND:                -0.317
REMARK SMILES O=C(N[C@H]1CN2CCC1CC2)c1cc2cccc(Cl)c2s1
REMARK SMILES IDX 12 1 13 2 14 3 20 4 18 5 17 6 16 7 15 8 21 9 19 10 2 11 3 12
REMARK SMILES IDX 1 13 4 15 9 16 5 17 8 18 10 19 6 20 7 21 11 22
REMARK H PARENT 3 14
ROOT
ATOM      1  C   UNL     1     142.710 138.378  90.726  1.00  0.00     0.093 A 
ATOM      2  C   UNL     1     141.846 137.337  90.688  1.00  0.00     0.034 A 
ATOM      3  C   UNL     1     140.467 137.575  90.369  1.00  0.00    -0.005 A 
ATOM      4  C   UNL     1     140.174 138.960  90.117  1.00  0.00     0.054 A 
ATOM      5  C   UNL     1     138.892 139.338  89.798  1.00  0.00     0.058 A 
ATOM      6  C   UNL     1     137.881 138.374  89.719  1.00  0.00     0.022 A 
ATOM      7  C   UNL     1     138.172 137.022  89.968  1.00  0.00     0.002 A 
ATOM      8  C   UNL     1     139.473 136.636  90.292  1.00  0.00     0.010 A 
ATOM      9  S   UNL     1     141.775 139.794  90.336  1.00  0.00    -0.128 S 
ATOM     10  Cl  UNL     1     138.517 141.053  89.484  1.00  0.00    -0.083 Cl
ENDROOT
BRANCH   1  11
ATOM     11  C   UNL     1     144.205 138.291  91.051  1.00  0.00     0.261 C 
ATOM     12  N   UNL     1     145.134 139.269  90.517  1.00  0.00    -0.347 N 
ATOM     13  O   UNL     1     144.605 137.416  91.741  1.00  0.00    -0.268 OA
ATOM     14  H   UNL     1     144.810 139.998  89.940  1.00  0.00     0.164 HD
BRANCH  12  15
ATOM     15  C   UNL     1     146.573 139.161  90.846  1.00  0.00     0.099 C 
ATOM     16  C   UNL     1     147.128 140.487  91.103  1.00  0.00     0.015 C 
ATOM     17  C   UNL     1     147.339 138.540  89.661  1.00  0.00     0.109 C 
ATOM     18  C   UNL     1     148.532 140.351  91.373  1.00  0.00     0.021 C 
ATOM     19  C   UNL     1     146.967 141.294  89.896  1.00  0.00     0.021 C 
ATOM     20  N   UNL     1     148.343 139.397  89.202  1.00  0.00    -0.301 NA
ATOM     21  C   UNL     1     149.225 139.689  90.219  1.00  0.00     0.085 C 
ATOM     22  C   UNL     1     147.763 140.599  88.727  1.00  0.00     0.085 C 
ENDBRANCH  12  15
ENDBRANCH   1  11
TORSDOF 2
ENDMDL
MODEL 20
REMARK VINA RESULT:    -5.801      5.389      6.453
REMARK INTER + INTRA:          -6.796
REMARK INTER:                  -6.497
REMARK INTRA:                  -0.298
REMARK UNBOUND:                -0.317
REMARK SMILES O=C(N[C@H]1CN2CCC1CC2)c1cc2cccc(Cl)c2s1
REMARK SMILES IDX 12 1 13 2 14 3 20 4 18 5 17 6 16 7 15 8 21 9 19 10 2 11 3 12
REMARK SMILES IDX 1 13 4 15 9 16 5 17 8 18 10 19 6 20 7 21 11 22
REMARK H PARENT 3 14
ROOT
ATOM      1  C   UNL     1     144.012 140.930  93.331  1.00  0.00     0.093 A 
ATOM      2  C   UNL     1     144.314 141.289  92.063  1.00  0.00     0.034 A 
ATOM      3  C   UNL     1     144.654 140.276  91.104  1.00  0.00    -0.005 A 
ATOM      4  C   UNL     1     144.623 138.946  91.649  1.00  0.00     0.054 A 
ATOM      5  C   UNL     1     144.926 137.873  90.845  1.00  0.00     0.058 A 
ATOM      6  C   UNL     1     145.261 138.081  89.504  1.00  0.00     0.022 A 
ATOM      7  C   UNL     1     145.291 139.383  88.975  1.00  0.00     0.002 A 
ATOM      8  C   UNL     1     144.985 140.473  89.789  1.00  0.00     0.010 A 
ATOM      9  S   UNL     1     144.145 139.195  93.385  1.00  0.00    -0.128 S 
ATOM     10  Cl  UNL     1     144.892 136.219  91.511  1.00  0.00    -0.083 Cl
ENDROOT
BRANCH   1  11
ATOM     11  C   UNL     1     143.632 141.886  94.468  1.00  0.00     0.261 C 
ATOM     12  N   UNL     1     142.243 142.208  94.727  1.00  0.00    -0.347 N 
ATOM     13  O   UNL     1     144.483 142.367  95.137  1.00  0.00    -0.268 OA
ATOM     14  H   UNL     1     141.530 141.815  94.173  1.00  0.00     0.164 HD
BRANCH  12  15
ATOM     15  C   UNL     1     141.904 143.135  95.831  1.00  0.00     0.099 C 
ATOM     16  C   UNL     1     141.627 142.381  97.050  1.00  0.00     0.015 C 
ATOM     17  C   UNL     1     140.643 143.945  95.469  1.00  0.00     0.109 C 
ATOM     18  C   UNL     1     141.258 143.305  98.086  1.00  0.00     0.021 C 
ATOM     19  C   UNL     1     140.493 141.497  96.795  1.00  0.00     0.021 C 
ATOM     20  N   UNL     1     139.629 143.750  96.410  1.00  0.00    -0.301 NA
ATOM     21  C   UNL     1     140.065 144.112  97.666  1.00  0.00     0.085 C 
ATOM     22  C   UNL     1     139.246 142.387  96.423  1.00  0.00     0.085 C 
ENDBRANCH  12  15
ENDBRANCH   1  11
TORSDOF 2
ENDMDL
