MODEL 1
REMARK VINA RESULT:    -8.268      0.000      0.000
REMARK INTER + INTRA:          -9.941
REMARK INTER:                  -9.718
REMARK INTRA:                  -0.223
REMARK UNBOUND:                -0.223
REMARK SMILES CN1C(N)=N[C@](C)(c2cc(NC(=O)c3ccc(F)cn3)ccc2F)CS1(=O)=O
REMARK SMILES IDX 8 1 9 2 10 3 21 4 22 5 23 6 24 7 6 8 25 9 5 10 26 11 3 12
REMARK SMILES IDX 27 13 2 14 28 15 4 16 7 17 1 18 11 21 12 22 13 23 14 25
REMARK SMILES IDX 20 26 15 27 19 28 16 29 17 30 18 31
REMARK H PARENT 4 19 4 20 11 24
ROOT
ATOM      1  C   UNL     1      24.015  12.628  20.784  1.00  0.00     0.018 A 
ATOM      2  C   UNL     1      23.475  12.368  22.043  1.00  0.00     0.035 A 
ATOM      3  C   UNL     1      22.652  11.292  22.283  1.00  0.00     0.042 A 
ATOM      4  C   UNL     1      22.309  10.425  21.253  1.00  0.00     0.029 A 
ATOM      5  C   UNL     1      22.838  10.665  19.998  1.00  0.00     0.042 A 
ATOM      6  C   UNL     1      23.689  11.731  19.778  1.00  0.00     0.129 A 
ATOM      7  F   UNL     1      24.218  11.928  18.544  1.00  0.00    -0.207 F 
ENDROOT
BRANCH   1   8
ATOM      8  C   UNL     1      24.925  13.824  20.551  1.00  0.00     0.105 C 
ATOM      9  C   UNL     1      26.248  13.505  19.892  1.00  0.00     0.195 C 
ATOM     10  N   UNL     1      25.145  14.592  21.775  1.00  0.00    -0.240 NA
ATOM     11  S   UNL     1      27.229  12.454  20.934  1.00  0.00     0.239 S 
ATOM     12  C   UNL     1      26.026  14.231  22.657  1.00  0.00     0.205 C 
ATOM     13  O   UNL     1      28.617  12.726  20.607  1.00  0.00    -0.206 OA
ATOM     14  N   UNL     1      26.922  13.154  22.477  1.00  0.00    -0.243 N 
ATOM     15  O   UNL     1      26.670  11.142  21.037  1.00  0.00    -0.206 OA
ATOM     16  N   UNL     1      26.181  14.890  23.847  1.00  0.00    -0.369 N 
ATOM     17  C   UNL     1      24.202  14.825  19.644  1.00  0.00     0.044 C 
ATOM     18  C   UNL     1      27.831  12.678  23.538  1.00  0.00     0.167 C 
ATOM     19  H   UNL     1      25.602  15.656  24.065  1.00  0.00     0.159 HD
ATOM     20  H   UNL     1      26.872  14.599  24.485  1.00  0.00     0.159 HD
ENDBRANCH   1   8
BRANCH   3  21
ATOM     21  N   UNL     1      22.175  11.147  23.592  1.00  0.00    -0.321 N 
ATOM     22  C   UNL     1      22.887  11.215  24.777  1.00  0.00     0.274 C 
ATOM     23  O   UNL     1      24.105  11.289  24.862  1.00  0.00    -0.267 OA
ATOM     24  H   UNL     1      21.209  10.974  23.680  1.00  0.00     0.170 HD
BRANCH  22  25
ATOM     25  C   UNL     1      22.063  11.231  26.010  1.00  0.00     0.128 A 
ATOM     26  N   UNL     1      22.596  11.848  27.070  1.00  0.00    -0.248 NA
ATOM     27  C   UNL     1      20.813  10.637  26.015  1.00  0.00     0.037 A 
ATOM     28  C   UNL     1      21.870  11.872  28.200  1.00  0.00     0.151 A 
ATOM     29  C   UNL     1      20.088  10.683  27.192  1.00  0.00     0.043 A 
ATOM     30  C   UNL     1      20.621  11.304  28.305  1.00  0.00     0.141 A 
ATOM     31  F   UNL     1      19.950  11.382  29.467  1.00  0.00    -0.205 F 
ENDBRANCH  22  25
ENDBRANCH   3  21
TORSDOF 3
ENDMDL
MODEL 2
REMARK VINA RESULT:    -7.956      1.870      2.349
REMARK INTER + INTRA:          -9.574
REMARK INTER:                  -9.248
REMARK INTRA:                  -0.326
REMARK UNBOUND:                -0.223
REMARK SMILES CN1C(N)=N[C@](C)(c2cc(NC(=O)c3ccc(F)cn3)ccc2F)CS1(=O)=O
REMARK SMILES IDX 8 1 9 2 10 3 21 4 22 5 23 6 24 7 6 8 25 9 5 10 26 11 3 12
REMARK SMILES IDX 27 13 2 14 28 15 4 16 7 17 1 18 11 21 12 22 13 23 14 25
REMARK SMILES IDX 20 26 15 27 19 28 16 29 17 30 18 31
REMARK H PARENT 4 19 4 20 11 24
ROOT
ATOM      1  C   UNL     1      25.379  13.374  20.598  1.00  0.00     0.018 A 
ATOM      2  C   UNL     1      24.769  12.805  21.715  1.00  0.00     0.035 A 
ATOM      3  C   UNL     1      23.437  12.459  21.731  1.00  0.00     0.042 A 
ATOM      4  C   UNL     1      22.637  12.691  20.619  1.00  0.00     0.029 A 
ATOM      5  C   UNL     1      23.226  13.252  19.500  1.00  0.00     0.042 A 
ATOM      6  C   UNL     1      24.571  13.565  19.488  1.00  0.00     0.129 A 
ATOM      7  F   UNL     1      25.131  14.087  18.366  1.00  0.00    -0.207 F 
ENDROOT
BRANCH   1   8
ATOM      8  C   UNL     1      26.854  13.742  20.611  1.00  0.00     0.105 C 
ATOM      9  C   UNL     1      27.626  13.340  19.374  1.00  0.00     0.195 C 
ATOM     10  N   UNL     1      27.533  13.249  21.808  1.00  0.00    -0.240 NA
ATOM     11  S   UNL     1      27.657  11.573  19.201  1.00  0.00     0.239 S 
ATOM     12  C   UNL     1      27.948  12.024  21.900  1.00  0.00     0.205 C 
ATOM     13  O   UNL     1      28.872  11.249  18.476  1.00  0.00    -0.206 OA
ATOM     14  N   UNL     1      27.897  11.095  20.837  1.00  0.00    -0.243 N 
ATOM     15  O   UNL     1      26.365  11.052  18.879  1.00  0.00    -0.206 OA
ATOM     16  N   UNL     1      28.505  11.525  23.048  1.00  0.00    -0.369 N 
ATOM     17  C   UNL     1      26.983  15.262  20.745  1.00  0.00     0.044 C 
ATOM     18  C   UNL     1      28.258   9.672  20.994  1.00  0.00     0.167 C 
ATOM     19  H   UNL     1      28.585  12.098  23.845  1.00  0.00     0.159 HD
ATOM     20  H   UNL     1      28.826  10.595  23.075  1.00  0.00     0.159 HD
ENDBRANCH   1   8
BRANCH   3  21
ATOM     21  N   UNL     1      22.948  11.898  22.918  1.00  0.00    -0.321 N 
ATOM     22  C   UNL     1      22.480  12.550  24.045  1.00  0.00     0.274 C 
ATOM     23  O   UNL     1      22.539  13.758  24.236  1.00  0.00    -0.267 OA
ATOM     24  H   UNL     1      22.937  10.914  22.955  1.00  0.00     0.170 HD
BRANCH  22  25
ATOM     25  C   UNL     1      21.832  11.680  25.056  1.00  0.00     0.128 A 
ATOM     26  N   UNL     1      21.159  12.302  26.030  1.00  0.00    -0.248 NA
ATOM     27  C   UNL     1      21.937  10.304  24.953  1.00  0.00     0.037 A 
ATOM     28  C   UNL     1      20.567  11.535  26.960  1.00  0.00     0.151 A 
ATOM     29  C   UNL     1      21.312   9.540  25.923  1.00  0.00     0.043 A 
ATOM     30  C   UNL     1      20.620  10.159  26.946  1.00  0.00     0.141 A 
ATOM     31  F   UNL     1      19.990   9.459  27.905  1.00  0.00    -0.205 F 
ENDBRANCH  22  25
ENDBRANCH   3  21
TORSDOF 3
ENDMDL
MODEL 3
REMARK VINA RESULT:    -7.935      7.408     10.732
REMARK INTER + INTRA:          -9.549
REMARK INTER:                  -9.275
REMARK INTRA:                  -0.274
REMARK UNBOUND:                -0.223
REMARK SMILES CN1C(N)=N[C@](C)(c2cc(NC(=O)c3ccc(F)cn3)ccc2F)CS1(=O)=O
REMARK SMILES IDX 8 1 9 2 10 3 21 4 22 5 23 6 24 7 6 8 25 9 5 10 26 11 3 12
REMARK SMILES IDX 27 13 2 14 28 15 4 16 7 17 1 18 11 21 12 22 13 23 14 25
REMARK SMILES IDX 20 26 15 27 19 28 16 29 17 30 18 31
REMARK H PARENT 4 19 4 20 11 24
ROOT
ATOM      1  C   UNL     1      22.565   8.819  16.689  1.00  0.00     0.018 A 
ATOM      2  C   UNL     1      23.785   8.300  16.259  1.00  0.00     0.035 A 
ATOM      3  C   UNL     1      24.955   9.023  16.321  1.00  0.00     0.042 A 
ATOM      4  C   UNL     1      24.953  10.326  16.802  1.00  0.00     0.029 A 
ATOM      5  C   UNL     1      23.751  10.856  17.237  1.00  0.00     0.042 A 
ATOM      6  C   UNL     1      22.590  10.108  17.199  1.00  0.00     0.129 A 
ATOM      7  F   UNL     1      21.429  10.642  17.658  1.00  0.00    -0.207 F 
ENDROOT
BRANCH   1   8
ATOM      8  C   UNL     1      21.290   7.994  16.611  1.00  0.00     0.105 C 
ATOM      9  C   UNL     1      20.473   7.956  17.883  1.00  0.00     0.195 C 
ATOM     10  N   UNL     1      21.543   6.635  16.136  1.00  0.00    -0.240 NA
ATOM     11  S   UNL     1      21.380   7.165  19.188  1.00  0.00     0.239 S 
ATOM     12  C   UNL     1      21.970   5.704  16.932  1.00  0.00     0.205 C 
ATOM     13  O   UNL     1      20.397   6.584  20.083  1.00  0.00    -0.206 OA
ATOM     14  N   UNL     1      22.116   5.868  18.327  1.00  0.00    -0.243 N 
ATOM     15  O   UNL     1      22.487   7.961  19.618  1.00  0.00    -0.206 OA
ATOM     16  N   UNL     1      22.296   4.452  16.483  1.00  0.00    -0.369 N 
ATOM     17  C   UNL     1      20.390   8.577  15.518  1.00  0.00     0.044 C 
ATOM     18  C   UNL     1      22.719   4.841  19.200  1.00  0.00     0.167 C 
ATOM     19  H   UNL     1      22.226   4.239  15.524  1.00  0.00     0.159 HD
ATOM     20  H   UNL     1      22.599   3.764  17.119  1.00  0.00     0.159 HD
ENDBRANCH   1   8
BRANCH   3  21
ATOM     21  N   UNL     1      26.112   8.385  15.854  1.00  0.00    -0.321 N 
ATOM     22  C   UNL     1      27.310   8.191  16.518  1.00  0.00     0.274 C 
ATOM     23  O   UNL     1      27.600   8.673  17.605  1.00  0.00    -0.267 OA
ATOM     24  H   UNL     1      26.066   8.030  14.937  1.00  0.00     0.170 HD
BRANCH  22  25
ATOM     25  C   UNL     1      28.274   7.294  15.834  1.00  0.00     0.128 A 
ATOM     26  N   UNL     1      29.492   7.797  15.605  1.00  0.00    -0.248 NA
ATOM     27  C   UNL     1      27.893   6.011  15.482  1.00  0.00     0.037 A 
ATOM     28  C   UNL     1      30.380   7.004  14.983  1.00  0.00     0.151 A 
ATOM     29  C   UNL     1      28.833   5.216  14.849  1.00  0.00     0.043 A 
ATOM     30  C   UNL     1      30.094   5.717  14.589  1.00  0.00     0.141 A 
ATOM     31  F   UNL     1      31.042   4.980  13.985  1.00  0.00    -0.205 F 
ENDBRANCH  22  25
ENDBRANCH   3  21
TORSDOF 3
ENDMDL
MODEL 4
REMARK VINA RESULT:    -7.819      2.535      3.863
REMARK INTER + INTRA:          -9.413
REMARK INTER:                  -8.987
REMARK INTRA:                  -0.427
REMARK UNBOUND:                -0.223
REMARK SMILES CN1C(N)=N[C@](C)(c2cc(NC(=O)c3ccc(F)cn3)ccc2F)CS1(=O)=O
REMARK SMILES IDX 8 1 9 2 10 3 21 4 22 5 23 6 24 7 6 8 25 9 5 10 26 11 3 12
REMARK SMILES IDX 27 13 2 14 28 15 4 16 7 17 1 18 11 21 12 22 13 23 14 25
REMARK SMILES IDX 20 26 15 27 19 28 16 29 17 30 18 31
REMARK H PARENT 4 19 4 20 11 24
ROOT
ATOM      1  C   UNL     1      26.363  12.701  21.834  1.00  0.00     0.018 A 
ATOM      2  C   UNL     1      25.440  12.250  22.777  1.00  0.00     0.035 A 
ATOM      3  C   UNL     1      25.310  12.833  24.017  1.00  0.00     0.042 A 
ATOM      4  C   UNL     1      26.124  13.897  24.383  1.00  0.00     0.029 A 
ATOM      5  C   UNL     1      27.044  14.360  23.459  1.00  0.00     0.042 A 
ATOM      6  C   UNL     1      27.142  13.786  22.207  1.00  0.00     0.129 A 
ATOM      7  F   UNL     1      28.032  14.279  21.308  1.00  0.00    -0.207 F 
ENDROOT
BRANCH   1   8
ATOM      8  C   UNL     1      26.481  12.038  20.471  1.00  0.00     0.105 C 
ATOM      9  C   UNL     1      26.322  12.968  19.289  1.00  0.00     0.195 C 
ATOM     10  N   UNL     1      25.579  10.896  20.336  1.00  0.00    -0.240 NA
ATOM     11  S   UNL     1      24.689  13.663  19.255  1.00  0.00     0.239 S 
ATOM     12  C   UNL     1      24.326  11.049  20.034  1.00  0.00     0.205 C 
ATOM     13  O   UNL     1      24.394  13.959  17.865  1.00  0.00    -0.206 OA
ATOM     14  N   UNL     1      23.746  12.291  19.695  1.00  0.00    -0.243 N 
ATOM     15  O   UNL     1      24.482  14.580  20.333  1.00  0.00    -0.206 OA
ATOM     16  N   UNL     1      23.451   9.997  19.991  1.00  0.00    -0.369 N 
ATOM     17  C   UNL     1      27.867  11.396  20.352  1.00  0.00     0.044 C 
ATOM     18  C   UNL     1      22.297  12.470  19.475  1.00  0.00     0.167 C 
ATOM     19  H   UNL     1      23.762   9.089  20.212  1.00  0.00     0.159 HD
ATOM     20  H   UNL     1      22.511  10.148  19.740  1.00  0.00     0.159 HD
ENDBRANCH   1   8
BRANCH   3  21
ATOM     21  N   UNL     1      24.346  12.281  24.871  1.00  0.00    -0.321 N 
ATOM     22  C   UNL     1      23.016  12.638  25.006  1.00  0.00     0.274 C 
ATOM     23  O   UNL     1      22.488  13.606  24.474  1.00  0.00    -0.267 OA
ATOM     24  H   UNL     1      24.655  11.546  25.449  1.00  0.00     0.170 HD
BRANCH  22  25
ATOM     25  C   UNL     1      22.198  11.726  25.843  1.00  0.00     0.128 A 
ATOM     26  N   UNL     1      22.134  12.015  27.147  1.00  0.00    -0.248 NA
ATOM     27  C   UNL     1      21.545  10.653  25.260  1.00  0.00     0.037 A 
ATOM     28  C   UNL     1      21.403  11.200  27.925  1.00  0.00     0.151 A 
ATOM     29  C   UNL     1      20.794   9.836  26.087  1.00  0.00     0.043 A 
ATOM     30  C   UNL     1      20.723  10.106  27.440  1.00  0.00     0.141 A 
ATOM     31  F   UNL     1      19.999   9.347  28.280  1.00  0.00    -0.205 F 
ENDBRANCH  22  25
ENDBRANCH   3  21
TORSDOF 3
ENDMDL
MODEL 5
REMARK VINA RESULT:    -7.596      2.591      3.889
REMARK INTER + INTRA:          -9.151
REMARK INTER:                  -8.761
REMARK INTRA:                  -0.390
REMARK UNBOUND:                -0.223
REMARK SMILES CN1C(N)=N[C@](C)(c2cc(NC(=O)c3ccc(F)cn3)ccc2F)CS1(=O)=O
REMARK SMILES IDX 8 1 9 2 10 3 21 4 22 5 23 6 24 7 6 8 25 9 5 10 26 11 3 12
REMARK SMILES IDX 27 13 2 14 28 15 4 16 7 17 1 18 11 21 12 22 13 23 14 25
REMARK SMILES IDX 20 26 15 27 19 28 16 29 17 30 18 31
REMARK H PARENT 4 19 4 20 11 24
ROOT
ATOM      1  C   UNL     1      27.642  14.082  21.646  1.00  0.00     0.018 A 
ATOM      2  C   UNL     1      26.714  13.311  22.344  1.00  0.00     0.035 A 
ATOM      3  C   UNL     1      25.392  13.676  22.461  1.00  0.00     0.042 A 
ATOM      4  C   UNL     1      24.937  14.859  21.893  1.00  0.00     0.029 A 
ATOM      5  C   UNL     1      25.843  15.635  21.193  1.00  0.00     0.042 A 
ATOM      6  C   UNL     1      27.159  15.240  21.057  1.00  0.00     0.129 A 
ATOM      7  F   UNL     1      28.022  16.005  20.340  1.00  0.00    -0.207 F 
ENDROOT
BRANCH   1   8
ATOM      8  C   UNL     1      29.096  13.650  21.533  1.00  0.00     0.105 C 
ATOM      9  C   UNL     1      29.613  13.504  20.119  1.00  0.00     0.195 C 
ATOM     10  N   UNL     1      29.367  12.431  22.294  1.00  0.00    -0.240 NA
ATOM     11  S   UNL     1      28.745  12.213  19.263  1.00  0.00     0.239 S 
ATOM     12  C   UNL     1      29.092  11.256  21.820  1.00  0.00     0.205 C 
ATOM     13  O   UNL     1      29.657  11.695  18.260  1.00  0.00    -0.206 OA
ATOM     14  N   UNL     1      28.626  11.028  20.506  1.00  0.00    -0.243 N 
ATOM     15  O   UNL     1      27.386  12.574  19.004  1.00  0.00    -0.206 OA
ATOM     16  N   UNL     1      29.259  10.113  22.556  1.00  0.00    -0.369 N 
ATOM     17  C   UNL     1      29.977  14.692  22.227  1.00  0.00     0.044 C 
ATOM     18  C   UNL     1      28.200   9.700  20.022  1.00  0.00     0.167 C 
ATOM     19  H   UNL     1      29.581  10.169  23.485  1.00  0.00     0.159 HD
ATOM     20  H   UNL     1      29.057   9.236  22.157  1.00  0.00     0.159 HD
ENDBRANCH   1   8
BRANCH   3  21
ATOM     21  N   UNL     1      24.565  12.813  23.192  1.00  0.00    -0.321 N 
ATOM     22  C   UNL     1      24.366  12.772  24.560  1.00  0.00     0.274 C 
ATOM     23  O   UNL     1      24.999  13.420  25.384  1.00  0.00    -0.267 OA
ATOM     24  H   UNL     1      24.060  12.153  22.664  1.00  0.00     0.170 HD
BRANCH  22  25
ATOM     25  C   UNL     1      23.267  11.885  25.014  1.00  0.00     0.128 A 
ATOM     26  N   UNL     1      22.667  12.224  26.160  1.00  0.00    -0.248 NA
ATOM     27  C   UNL     1      22.909  10.785  24.254  1.00  0.00     0.037 A 
ATOM     28  C   UNL     1      21.671  11.433  26.593  1.00  0.00     0.151 A 
ATOM     29  C   UNL     1      21.875   9.993  24.724  1.00  0.00     0.043 A 
ATOM     30  C   UNL     1      21.247  10.315  25.912  1.00  0.00     0.141 A 
ATOM     31  F   UNL     1      20.234   9.581  26.402  1.00  0.00    -0.205 F 
ENDBRANCH  22  25
ENDBRANCH   3  21
TORSDOF 3
ENDMDL
MODEL 6
REMARK VINA RESULT:    -7.563      4.836      7.255
REMARK INTER + INTRA:          -9.112
REMARK INTER:                  -8.832
REMARK INTRA:                  -0.280
REMARK UNBOUND:                -0.223
REMARK SMILES CN1C(N)=N[C@](C)(c2cc(NC(=O)c3ccc(F)cn3)ccc2F)CS1(=O)=O
REMARK SMILES IDX 8 1 9 2 10 3 21 4 22 5 23 6 24 7 6 8 25 9 5 10 26 11 3 12
REMARK SMILES IDX 27 13 2 14 28 15 4 16 7 17 1 18 11 21 12 22 13 23 14 25
REMARK SMILES IDX 20 26 15 27 19 28 16 29 17 30 18 31
REMARK H PARENT 4 19 4 20 11 24
ROOT
ATOM      1  C   UNL     1      23.632  12.055  20.111  1.00  0.00     0.018 A 
ATOM      2  C   UNL     1      23.317  10.727  19.829  1.00  0.00     0.035 A 
ATOM      3  C   UNL     1      22.733   9.896  20.759  1.00  0.00     0.042 A 
ATOM      4  C   UNL     1      22.454  10.359  22.039  1.00  0.00     0.029 A 
ATOM      5  C   UNL     1      22.758  11.676  22.335  1.00  0.00     0.042 A 
ATOM      6  C   UNL     1      23.314  12.507  21.382  1.00  0.00     0.129 A 
ATOM      7  F   UNL     1      23.575  13.803  21.689  1.00  0.00    -0.207 F 
ENDROOT
BRANCH   1   8
ATOM      8  C   UNL     1      24.275  12.949  19.061  1.00  0.00     0.105 C 
ATOM      9  C   UNL     1      23.625  14.304  18.889  1.00  0.00     0.195 C 
ATOM     10  N   UNL     1      24.391  12.279  17.767  1.00  0.00    -0.240 NA
ATOM     11  S   UNL     1      21.959  14.130  18.300  1.00  0.00     0.239 S 
ATOM     12  C   UNL     1      23.391  12.212  16.943  1.00  0.00     0.205 C 
ATOM     13  O   UNL     1      21.654  15.340  17.558  1.00  0.00    -0.206 OA
ATOM     14  N   UNL     1      22.155  12.863  17.151  1.00  0.00    -0.243 N 
ATOM     15  O   UNL     1      21.105  13.560  19.295  1.00  0.00    -0.206 OA
ATOM     16  N   UNL     1      23.459  11.512  15.767  1.00  0.00    -0.369 N 
ATOM     17  C   UNL     1      25.735  13.198  19.450  1.00  0.00     0.044 C 
ATOM     18  C   UNL     1      20.987  12.675  16.268  1.00  0.00     0.167 C 
ATOM     19  H   UNL     1      24.281  11.024  15.532  1.00  0.00     0.159 HD
ATOM     20  H   UNL     1      22.686  11.498  15.157  1.00  0.00     0.159 HD
ENDBRANCH   1   8
BRANCH   3  21
ATOM     21  N   UNL     1      22.469   8.583  20.349  1.00  0.00    -0.321 N 
ATOM     22  C   UNL     1      21.653   8.154  19.317  1.00  0.00     0.274 C 
ATOM     23  O   UNL     1      20.910   8.873  18.662  1.00  0.00    -0.267 OA
ATOM     24  H   UNL     1      22.924   7.875  20.860  1.00  0.00     0.170 HD
BRANCH  22  25
ATOM     25  C   UNL     1      21.745   6.710  18.995  1.00  0.00     0.128 A 
ATOM     26  N   UNL     1      20.908   5.901  19.653  1.00  0.00    -0.248 NA
ATOM     27  C   UNL     1      22.655   6.269  18.051  1.00  0.00     0.037 A 
ATOM     28  C   UNL     1      20.976   4.587  19.381  1.00  0.00     0.151 A 
ATOM     29  C   UNL     1      22.697   4.911  17.788  1.00  0.00     0.043 A 
ATOM     30  C   UNL     1      21.851   4.053  18.463  1.00  0.00     0.141 A 
ATOM     31  F   UNL     1      21.850   2.729  18.235  1.00  0.00    -0.205 F 
ENDBRANCH  22  25
ENDBRANCH   3  21
TORSDOF 3
ENDMDL
MODEL 7
REMARK VINA RESULT:    -7.406      4.202      6.573
REMARK INTER + INTRA:          -8.928
REMARK INTER:                  -8.630
REMARK INTRA:                  -0.298
REMARK UNBOUND:                -0.223
REMARK SMILES CN1C(N)=N[C@](C)(c2cc(NC(=O)c3ccc(F)cn3)ccc2F)CS1(=O)=O
REMARK SMILES IDX 8 1 9 2 10 3 21 4 22 5 23 6 24 7 6 8 25 9 5 10 26 11 3 12
REMARK SMILES IDX 27 13 2 14 28 15 4 16 7 17 1 18 11 21 12 22 13 23 14 25
REMARK SMILES IDX 20 26 15 27 19 28 16 29 17 30 18 31
REMARK H PARENT 4 19 4 20 11 24
ROOT
ATOM      1  C   UNL     1      24.947  11.648  21.190  1.00  0.00     0.018 A 
ATOM      2  C   UNL     1      24.489  10.391  20.799  1.00  0.00     0.035 A 
ATOM      3  C   UNL     1      23.183   9.996  20.975  1.00  0.00     0.042 A 
ATOM      4  C   UNL     1      22.266  10.846  21.582  1.00  0.00     0.029 A 
ATOM      5  C   UNL     1      22.703  12.099  21.974  1.00  0.00     0.042 A 
ATOM      6  C   UNL     1      24.009  12.494  21.761  1.00  0.00     0.129 A 
ATOM      7  F   UNL     1      24.404  13.740  22.129  1.00  0.00    -0.207 F 
ENDROOT
BRANCH   1   8
ATOM      8  C   UNL     1      26.397  12.057  20.979  1.00  0.00     0.105 C 
ATOM      9  C   UNL     1      26.597  13.284  20.118  1.00  0.00     0.195 C 
ATOM     10  N   UNL     1      27.211  10.952  20.475  1.00  0.00    -0.240 NA
ATOM     11  S   UNL     1      26.019  12.992  18.465  1.00  0.00     0.239 S 
ATOM     12  C   UNL     1      27.228  10.637  19.217  1.00  0.00     0.205 C 
ATOM     13  O   UNL     1      26.797  13.857  17.596  1.00  0.00    -0.206 OA
ATOM     14  N   UNL     1      26.574  11.382  18.211  1.00  0.00    -0.243 N 
ATOM     15  O   UNL     1      24.595  12.875  18.417  1.00  0.00    -0.206 OA
ATOM     16  N   UNL     1      27.915   9.551  18.745  1.00  0.00    -0.369 N 
ATOM     17  C   UNL     1      27.030  12.356  22.341  1.00  0.00     0.044 C 
ATOM     18  C   UNL     1      26.499  10.942  16.804  1.00  0.00     0.167 C 
ATOM     19  H   UNL     1      28.405   8.969  19.370  1.00  0.00     0.159 HD
ATOM     20  H   UNL     1      27.921   9.352  17.781  1.00  0.00     0.159 HD
ENDBRANCH   1   8
BRANCH   3  21
ATOM     21  N   UNL     1      22.853   8.706  20.539  1.00  0.00    -0.321 N 
ATOM     22  C   UNL     1      21.968   8.338  19.542  1.00  0.00     0.274 C 
ATOM     23  O   UNL     1      21.216   9.102  18.951  1.00  0.00    -0.267 OA
ATOM     24  H   UNL     1      23.310   7.966  21.002  1.00  0.00     0.170 HD
BRANCH  22  25
ATOM     25  C   UNL     1      21.994   6.902  19.170  1.00  0.00     0.128 A 
ATOM     26  N   UNL     1      21.250   6.082  19.920  1.00  0.00    -0.248 NA
ATOM     27  C   UNL     1      22.752   6.481  18.092  1.00  0.00     0.037 A 
ATOM     28  C   UNL     1      21.261   4.777  19.605  1.00  0.00     0.151 A 
ATOM     29  C   UNL     1      22.738   5.131  17.788  1.00  0.00     0.043 A 
ATOM     30  C   UNL     1      21.987   4.261  18.556  1.00  0.00     0.141 A 
ATOM     31  F   UNL     1      21.935   2.944  18.294  1.00  0.00    -0.205 F 
ENDBRANCH  22  25
ENDBRANCH   3  21
TORSDOF 3
ENDMDL
MODEL 8
REMARK VINA RESULT:    -7.224      4.190      5.662
REMARK INTER + INTRA:          -8.714
REMARK INTER:                  -9.041
REMARK INTRA:                   0.327
REMARK UNBOUND:                -0.223
REMARK SMILES CN1C(N)=N[C@](C)(c2cc(NC(=O)c3ccc(F)cn3)ccc2F)CS1(=O)=O
REMARK SMILES IDX 8 1 9 2 10 3 21 4 22 5 23 6 24 7 6 8 25 9 5 10 26 11 3 12
REMARK SMILES IDX 27 13 2 14 28 15 4 16 7 17 1 18 11 21 12 22 13 23 14 25
REMARK SMILES IDX 20 26 15 27 19 28 16 29 17 30 18 31
REMARK H PARENT 4 19 4 20 11 24
ROOT
ATOM      1  C   UNL     1      23.031  10.060  18.882  1.00  0.00     0.018 A 
ATOM      2  C   UNL     1      22.636  10.040  20.219  1.00  0.00     0.035 A 
ATOM      3  C   UNL     1      23.523  10.241  21.252  1.00  0.00     0.042 A 
ATOM      4  C   UNL     1      24.871  10.453  20.991  1.00  0.00     0.029 A 
ATOM      5  C   UNL     1      25.280  10.480  19.669  1.00  0.00     0.042 A 
ATOM      6  C   UNL     1      24.374  10.308  18.642  1.00  0.00     0.129 A 
ATOM      7  F   UNL     1      24.797  10.368  17.353  1.00  0.00    -0.207 F 
ENDROOT
BRANCH   1   8
ATOM      8  C   UNL     1      22.026   9.837  17.763  1.00  0.00     0.105 C 
ATOM      9  C   UNL     1      20.850   8.956  18.123  1.00  0.00     0.195 C 
ATOM     10  N   UNL     1      22.664   9.347  16.542  1.00  0.00    -0.240 NA
ATOM     11  S   UNL     1      21.393   7.311  18.507  1.00  0.00     0.239 S 
ATOM     12  C   UNL     1      22.959   8.093  16.383  1.00  0.00     0.205 C 
ATOM     13  O   UNL     1      20.287   6.425  18.190  1.00  0.00    -0.206 OA
ATOM     14  N   UNL     1      22.595   7.078  17.296  1.00  0.00    -0.243 N 
ATOM     15  O   UNL     1      22.129   7.270  19.732  1.00  0.00    -0.206 OA
ATOM     16  N   UNL     1      23.635   7.635  15.284  1.00  0.00    -0.369 N 
ATOM     17  C   UNL     1      21.457  11.191  17.332  1.00  0.00     0.044 C 
ATOM     18  C   UNL     1      23.044   5.678  17.164  1.00  0.00     0.167 C 
ATOM     19  H   UNL     1      23.931   8.267  14.590  1.00  0.00     0.159 HD
ATOM     20  H   UNL     1      23.825   6.674  15.188  1.00  0.00     0.159 HD
ENDBRANCH   1   8
BRANCH   3  21
ATOM     21  N   UNL     1      22.997  10.193  22.550  1.00  0.00    -0.321 N 
ATOM     22  C   UNL     1      22.669  11.249  23.381  1.00  0.00     0.274 C 
ATOM     23  O   UNL     1      22.914  12.427  23.154  1.00  0.00    -0.267 OA
ATOM     24  H   UNL     1      22.840   9.293  22.916  1.00  0.00     0.170 HD
BRANCH  22  25
ATOM     25  C   UNL     1      21.934  10.879  24.615  1.00  0.00     0.128 A 
ATOM     26  N   UNL     1      21.745   9.572  24.823  1.00  0.00    -0.248 NA
ATOM     27  C   UNL     1      21.495  11.866  25.481  1.00  0.00     0.037 A 
ATOM     28  C   UNL     1      21.078   9.212  25.932  1.00  0.00     0.151 A 
ATOM     29  C   UNL     1      20.817  11.464  26.618  1.00  0.00     0.043 A 
ATOM     30  C   UNL     1      20.598  10.119  26.849  1.00  0.00     0.141 A 
ATOM     31  F   UNL     1      19.953   9.681  27.943  1.00  0.00    -0.205 F 
ENDBRANCH  22  25
ENDBRANCH   3  21
TORSDOF 3
ENDMDL
MODEL 9
REMARK VINA RESULT:    -7.219      6.546      8.167
REMARK INTER + INTRA:          -8.707
REMARK INTER:                  -8.421
REMARK INTRA:                  -0.286
REMARK UNBOUND:                -0.223
REMARK SMILES CN1C(N)=N[C@](C)(c2cc(NC(=O)c3ccc(F)cn3)ccc2F)CS1(=O)=O
REMARK SMILES IDX 8 1 9 2 10 3 21 4 22 5 23 6 24 7 6 8 25 9 5 10 26 11 3 12
REMARK SMILES IDX 27 13 2 14 28 15 4 16 7 17 1 18 11 21 12 22 13 23 14 25
REMARK SMILES IDX 20 26 15 27 19 28 16 29 17 30 18 31
REMARK H PARENT 4 19 4 20 11 24
ROOT
ATOM      1  C   UNL     1      24.159   7.038  14.876  1.00  0.00     0.018 A 
ATOM      2  C   UNL     1      23.992   7.964  15.904  1.00  0.00     0.035 A 
ATOM      3  C   UNL     1      23.369   7.645  17.089  1.00  0.00     0.042 A 
ATOM      4  C   UNL     1      22.857   6.370  17.293  1.00  0.00     0.029 A 
ATOM      5  C   UNL     1      23.016   5.436  16.284  1.00  0.00     0.042 A 
ATOM      6  C   UNL     1      23.672   5.762  15.113  1.00  0.00     0.129 A 
ATOM      7  F   UNL     1      23.841   4.819  14.151  1.00  0.00    -0.207 F 
ENDROOT
BRANCH   1   8
ATOM      8  C   UNL     1      24.855   7.421  13.579  1.00  0.00     0.105 C 
ATOM      9  C   UNL     1      25.862   6.414  13.070  1.00  0.00     0.195 C 
ATOM     10  N   UNL     1      25.466   8.747  13.655  1.00  0.00    -0.240 NA
ATOM     11  S   UNL     1      27.210   6.244  14.212  1.00  0.00     0.239 S 
ATOM     12  C   UNL     1      26.625   8.933  14.207  1.00  0.00     0.205 C 
ATOM     13  O   UNL     1      28.366   5.843  13.431  1.00  0.00    -0.206 OA
ATOM     14  N   UNL     1      27.450   7.885  14.672  1.00  0.00    -0.243 N 
ATOM     15  O   UNL     1      26.798   5.606  15.423  1.00  0.00    -0.206 OA
ATOM     16  N   UNL     1      27.168  10.180  14.364  1.00  0.00    -0.369 N 
ATOM     17  C   UNL     1      23.799   7.592  12.483  1.00  0.00     0.044 C 
ATOM     18  C   UNL     1      28.708   8.119  15.409  1.00  0.00     0.167 C 
ATOM     19  H   UNL     1      26.668  10.975  14.069  1.00  0.00     0.159 HD
ATOM     20  H   UNL     1      28.059  10.281  14.771  1.00  0.00     0.159 HD
ENDBRANCH   1   8
BRANCH   3  21
ATOM     21  N   UNL     1      23.264   8.669  18.039  1.00  0.00    -0.321 N 
ATOM     22  C   UNL     1      22.154   9.431  18.359  1.00  0.00     0.274 C 
ATOM     23  O   UNL     1      21.091   9.415  17.753  1.00  0.00    -0.267 OA
ATOM     24  H   UNL     1      24.084   8.872  18.544  1.00  0.00     0.170 HD
BRANCH  22  25
ATOM     25  C   UNL     1      22.302  10.293  19.556  1.00  0.00     0.128 A 
ATOM     26  N   UNL     1      22.348  11.611  19.336  1.00  0.00    -0.248 NA
ATOM     27  C   UNL     1      22.373   9.721  20.815  1.00  0.00     0.037 A 
ATOM     28  C   UNL     1      22.486  12.412  20.406  1.00  0.00     0.151 A 
ATOM     29  C   UNL     1      22.509  10.573  21.897  1.00  0.00     0.043 A 
ATOM     30  C   UNL     1      22.571  11.938  21.695  1.00  0.00     0.141 A 
ATOM     31  F   UNL     1      22.693  12.804  22.716  1.00  0.00    -0.205 F 
ENDBRANCH  22  25
ENDBRANCH   3  21
TORSDOF 3
ENDMDL
MODEL 10
REMARK VINA RESULT:    -7.181      2.238      2.863
REMARK INTER + INTRA:          -8.663
REMARK INTER:                  -9.002
REMARK INTRA:                   0.339
REMARK UNBOUND:                -0.223
REMARK SMILES CN1C(N)=N[C@](C)(c2cc(NC(=O)c3ccc(F)cn3)ccc2F)CS1(=O)=O
REMARK SMILES IDX 8 1 9 2 10 3 21 4 22 5 23 6 24 7 6 8 25 9 5 10 26 11 3 12
REMARK SMILES IDX 27 13 2 14 28 15 4 16 7 17 1 18 11 21 12 22 13 23 14 25
REMARK SMILES IDX 20 26 15 27 19 28 16 29 17 30 18 31
REMARK H PARENT 4 19 4 20 11 24
ROOT
ATOM      1  C   UNL     1      26.120  12.334  21.074  1.00  0.00     0.018 A 
ATOM      2  C   UNL     1      25.291  11.942  22.124  1.00  0.00     0.035 A 
ATOM      3  C   UNL     1      23.928  12.134  22.097  1.00  0.00     0.042 A 
ATOM      4  C   UNL     1      23.327  12.759  21.012  1.00  0.00     0.029 A 
ATOM      5  C   UNL     1      24.134  13.152  19.959  1.00  0.00     0.042 A 
ATOM      6  C   UNL     1      25.496  12.923  19.985  1.00  0.00     0.129 A 
ATOM      7  F   UNL     1      26.262  13.293  18.927  1.00  0.00    -0.207 F 
ENDROOT
BRANCH   1   8
ATOM      8  C   UNL     1      27.622  12.105  21.132  1.00  0.00     0.105 C 
ATOM      9  C   UNL     1      28.200  11.992  22.525  1.00  0.00     0.195 C 
ATOM     10  N   UNL     1      28.360  13.105  20.363  1.00  0.00    -0.240 NA
ATOM     11  S   UNL     1      27.994  13.513  23.416  1.00  0.00     0.239 S 
ATOM     12  C   UNL     1      28.629  14.278  20.849  1.00  0.00     0.205 C 
ATOM     13  O   UNL     1      29.074  13.576  24.384  1.00  0.00    -0.206 OA
ATOM     14  N   UNL     1      28.349  14.659  22.180  1.00  0.00    -0.243 N 
ATOM     15  O   UNL     1      26.621  13.760  23.727  1.00  0.00    -0.206 OA
ATOM     16  N   UNL     1      29.240  15.254  20.109  1.00  0.00    -0.369 N 
ATOM     17  C   UNL     1      27.951  10.800  20.402  1.00  0.00     0.044 C 
ATOM     18  C   UNL     1      28.546  16.033  22.682  1.00  0.00     0.167 C 
ATOM     19  H   UNL     1      29.476  15.083  19.168  1.00  0.00     0.159 HD
ATOM     20  H   UNL     1      29.445  16.126  20.517  1.00  0.00     0.159 HD
ENDBRANCH   1   8
BRANCH   3  21
ATOM     21  N   UNL     1      23.211  11.696  23.218  1.00  0.00    -0.321 N 
ATOM     22  C   UNL     1      22.562  12.459  24.173  1.00  0.00     0.274 C 
ATOM     23  O   UNL     1      22.623  13.678  24.260  1.00  0.00    -0.267 OA
ATOM     24  H   UNL     1      23.161  10.720  23.341  1.00  0.00     0.170 HD
BRANCH  22  25
ATOM     25  C   UNL     1      21.711  11.698  25.120  1.00  0.00     0.128 A 
ATOM     26  N   UNL     1      20.850  12.415  25.850  1.00  0.00    -0.248 NA
ATOM     27  C   UNL     1      21.829  10.322  25.203  1.00  0.00     0.037 A 
ATOM     28  C   UNL     1      20.072  11.748  26.718  1.00  0.00     0.151 A 
ATOM     29  C   UNL     1      21.010   9.663  26.102  1.00  0.00     0.043 A 
ATOM     30  C   UNL     1      20.120  10.382  26.876  1.00  0.00     0.141 A 
ATOM     31  F   UNL     1      19.298   9.785  27.756  1.00  0.00    -0.205 F 
ENDBRANCH  22  25
ENDBRANCH   3  21
TORSDOF 3
ENDMDL
MODEL 11
REMARK VINA RESULT:    -7.165      4.616      6.184
REMARK INTER + INTRA:          -8.645
REMARK INTER:                  -8.395
REMARK INTRA:                  -0.250
REMARK UNBOUND:                -0.223
REMARK SMILES CN1C(N)=N[C@](C)(c2cc(NC(=O)c3ccc(F)cn3)ccc2F)CS1(=O)=O
REMARK SMILES IDX 8 1 9 2 10 3 21 4 22 5 23 6 24 7 6 8 25 9 5 10 26 11 3 12
REMARK SMILES IDX 27 13 2 14 28 15 4 16 7 17 1 18 11 21 12 22 13 23 14 25
REMARK SMILES IDX 20 26 15 27 19 28 16 29 17 30 18 31
REMARK H PARENT 4 19 4 20 11 24
ROOT
ATOM      1  C   UNL     1      21.643   8.171  17.193  1.00  0.00     0.018 A 
ATOM      2  C   UNL     1      21.865   8.801  18.417  1.00  0.00     0.035 A 
ATOM      3  C   UNL     1      22.125   8.097  19.571  1.00  0.00     0.042 A 
ATOM      4  C   UNL     1      22.152   6.708  19.556  1.00  0.00     0.029 A 
ATOM      5  C   UNL     1      21.937   6.066  18.349  1.00  0.00     0.042 A 
ATOM      6  C   UNL     1      21.710   6.787  17.193  1.00  0.00     0.129 A 
ATOM      7  F   UNL     1      21.531   6.134  16.017  1.00  0.00    -0.207 F 
ENDROOT
BRANCH   1   8
ATOM      8  C   UNL     1      21.362   8.978  15.935  1.00  0.00     0.105 C 
ATOM      9  C   UNL     1      22.326   8.742  14.794  1.00  0.00     0.195 C 
ATOM     10  N   UNL     1      21.253  10.409  16.213  1.00  0.00    -0.240 NA
ATOM     11  S   UNL     1      23.965   9.258  15.241  1.00  0.00     0.239 S 
ATOM     12  C   UNL     1      22.303  11.162  16.332  1.00  0.00     0.205 C 
ATOM     13  O   UNL     1      24.634   9.629  14.007  1.00  0.00    -0.206 OA
ATOM     14  N   UNL     1      23.622  10.715  16.093  1.00  0.00    -0.243 N 
ATOM     15  O   UNL     1      24.533   8.405  16.238  1.00  0.00    -0.206 OA
ATOM     16  N   UNL     1      22.219  12.483  16.680  1.00  0.00    -0.369 N 
ATOM     17  C   UNL     1      19.964   8.621  15.422  1.00  0.00     0.044 C 
ATOM     18  C   UNL     1      24.813  11.547  16.353  1.00  0.00     0.167 C 
ATOM     19  H   UNL     1      21.342  12.888  16.866  1.00  0.00     0.159 HD
ATOM     20  H   UNL     1      23.037  13.029  16.742  1.00  0.00     0.159 HD
ENDBRANCH   1   8
BRANCH   3  21
ATOM     21  N   UNL     1      22.327   8.851  20.734  1.00  0.00    -0.321 N 
ATOM     22  C   UNL     1      23.268   9.840  20.962  1.00  0.00     0.274 C 
ATOM     23  O   UNL     1      24.181  10.132  20.201  1.00  0.00    -0.267 OA
ATOM     24  H   UNL     1      21.723   8.651  21.486  1.00  0.00     0.170 HD
BRANCH  22  25
ATOM     25  C   UNL     1      23.094  10.601  22.223  1.00  0.00     0.128 A 
ATOM     26  N   UNL     1      23.310   9.926  23.357  1.00  0.00    -0.248 NA
ATOM     27  C   UNL     1      22.736  11.937  22.180  1.00  0.00     0.037 A 
ATOM     28  C   UNL     1      23.155  10.594  24.512  1.00  0.00     0.151 A 
ATOM     29  C   UNL     1      22.590  12.599  23.386  1.00  0.00     0.043 A 
ATOM     30  C   UNL     1      22.796  11.921  24.572  1.00  0.00     0.141 A 
ATOM     31  F   UNL     1      22.674  12.524  25.767  1.00  0.00    -0.205 F 
ENDBRANCH  22  25
ENDBRANCH   3  21
TORSDOF 3
ENDMDL
MODEL 12
REMARK VINA RESULT:    -7.087      4.972      6.823
REMARK INTER + INTRA:          -8.553
REMARK INTER:                  -8.928
REMARK INTRA:                   0.375
REMARK UNBOUND:                -0.223
REMARK SMILES CN1C(N)=N[C@](C)(c2cc(NC(=O)c3ccc(F)cn3)ccc2F)CS1(=O)=O
REMARK SMILES IDX 8 1 9 2 10 3 21 4 22 5 23 6 24 7 6 8 25 9 5 10 26 11 3 12
REMARK SMILES IDX 27 13 2 14 28 15 4 16 7 17 1 18 11 21 12 22 13 23 14 25
REMARK SMILES IDX 20 26 15 27 19 28 16 29 17 30 18 31
REMARK H PARENT 4 19 4 20 11 24
ROOT
ATOM      1  C   UNL     1      22.725   9.161  17.433  1.00  0.00     0.018 A 
ATOM      2  C   UNL     1      22.674   9.578  18.762  1.00  0.00     0.035 A 
ATOM      3  C   UNL     1      23.755  10.144  19.398  1.00  0.00     0.042 A 
ATOM      4  C   UNL     1      24.963  10.300  18.729  1.00  0.00     0.029 A 
ATOM      5  C   UNL     1      25.031   9.895  17.408  1.00  0.00     0.042 A 
ATOM      6  C   UNL     1      23.928   9.358  16.773  1.00  0.00     0.129 A 
ATOM      7  F   UNL     1      24.013   8.996  15.467  1.00  0.00    -0.207 F 
ENDROOT
BRANCH   1   8
ATOM      8  C   UNL     1      21.512   8.542  16.757  1.00  0.00     0.105 C 
ATOM      9  C   UNL     1      20.517   7.893  17.694  1.00  0.00     0.195 C 
ATOM     10  N   UNL     1      21.891   7.605  15.700  1.00  0.00    -0.240 NA
ATOM     11  S   UNL     1      21.254   6.514  18.533  1.00  0.00     0.239 S 
ATOM     12  C   UNL     1      22.234   6.382  15.965  1.00  0.00     0.205 C 
ATOM     13  O   UNL     1      20.174   5.597  18.850  1.00  0.00    -0.206 OA
ATOM     14  N   UNL     1      22.164   5.807  17.254  1.00  0.00    -0.243 N 
ATOM     15  O   UNL     1      22.250   6.936  19.468  1.00  0.00    -0.206 OA
ATOM     16  N   UNL     1      22.675   5.521  14.996  1.00  0.00    -0.369 N 
ATOM     17  C   UNL     1      20.760   9.635  15.992  1.00  0.00     0.044 C 
ATOM     18  C   UNL     1      22.674   4.456  17.561  1.00  0.00     0.167 C 
ATOM     19  H   UNL     1      22.758   5.829  14.065  1.00  0.00     0.159 HD
ATOM     20  H   UNL     1      22.910   4.594  15.231  1.00  0.00     0.159 HD
ENDBRANCH   1   8
BRANCH   3  21
ATOM     21  N   UNL     1      23.572  10.517  20.736  1.00  0.00    -0.321 N 
ATOM     22  C   UNL     1      22.856  11.590  21.236  1.00  0.00     0.274 C 
ATOM     23  O   UNL     1      22.360  12.482  20.561  1.00  0.00    -0.267 OA
ATOM     24  H   UNL     1      24.008   9.942  21.406  1.00  0.00     0.170 HD
BRANCH  22  25
ATOM     25  C   UNL     1      22.672  11.598  22.708  1.00  0.00     0.128 A 
ATOM     26  N   UNL     1      22.504  10.406  23.291  1.00  0.00    -0.248 NA
ATOM     27  C   UNL     1      22.690  12.796  23.400  1.00  0.00     0.037 A 
ATOM     28  C   UNL     1      22.332  10.388  24.623  1.00  0.00     0.151 A 
ATOM     29  C   UNL     1      22.516  12.745  24.772  1.00  0.00     0.043 A 
ATOM     30  C   UNL     1      22.328  11.527  25.396  1.00  0.00     0.141 A 
ATOM     31  F   UNL     1      22.164  11.426  26.727  1.00  0.00    -0.205 F 
ENDBRANCH  22  25
ENDBRANCH   3  21
TORSDOF 3
ENDMDL
MODEL 13
REMARK VINA RESULT:    -6.938      3.565      6.107
REMARK INTER + INTRA:          -8.377
REMARK INTER:                  -8.771
REMARK INTRA:                   0.393
REMARK UNBOUND:                -0.223
REMARK SMILES CN1C(N)=N[C@](C)(c2cc(NC(=O)c3ccc(F)cn3)ccc2F)CS1(=O)=O
REMARK SMILES IDX 8 1 9 2 10 3 21 4 22 5 23 6 24 7 6 8 25 9 5 10 26 11 3 12
REMARK SMILES IDX 27 13 2 14 28 15 4 16 7 17 1 18 11 21 12 22 13 23 14 25
REMARK SMILES IDX 20 26 15 27 19 28 16 29 17 30 18 31
REMARK H PARENT 4 19 4 20 11 24
ROOT
ATOM      1  C   UNL     1      23.774  12.295  20.983  1.00  0.00     0.018 A 
ATOM      2  C   UNL     1      23.568  11.019  20.460  1.00  0.00     0.035 A 
ATOM      3  C   UNL     1      22.919  10.030  21.163  1.00  0.00     0.042 A 
ATOM      4  C   UNL     1      22.459  10.270  22.452  1.00  0.00     0.029 A 
ATOM      5  C   UNL     1      22.652  11.532  22.987  1.00  0.00     0.042 A 
ATOM      6  C   UNL     1      23.276  12.524  22.257  1.00  0.00     0.129 A 
ATOM      7  F   UNL     1      23.426  13.762  22.794  1.00  0.00    -0.207 F 
ENDROOT
BRANCH   1   8
ATOM      8  C   UNL     1      24.492  13.368  20.180  1.00  0.00     0.105 C 
ATOM      9  C   UNL     1      25.632  12.869  19.320  1.00  0.00     0.195 C 
ATOM     10  N   UNL     1      24.945  14.474  21.022  1.00  0.00    -0.240 NA
ATOM     11  S   UNL     1      26.927  12.191  20.328  1.00  0.00     0.239 S 
ATOM     12  C   UNL     1      26.044  14.403  21.707  1.00  0.00     0.205 C 
ATOM     13  O   UNL     1      28.162  12.357  19.583  1.00  0.00    -0.206 OA
ATOM     14  N   UNL     1      26.955  13.327  21.622  1.00  0.00    -0.243 N 
ATOM     15  O   UNL     1      26.524  10.970  20.954  1.00  0.00    -0.206 OA
ATOM     16  N   UNL     1      26.434  15.394  22.567  1.00  0.00    -0.369 N 
ATOM     17  C   UNL     1      23.485  14.040  19.242  1.00  0.00     0.044 C 
ATOM     18  C   UNL     1      28.137  13.201  22.498  1.00  0.00     0.167 C 
ATOM     19  H   UNL     1      25.864  16.187  22.695  1.00  0.00     0.159 HD
ATOM     20  H   UNL     1      27.284  15.315  23.057  1.00  0.00     0.159 HD
ENDBRANCH   1   8
BRANCH   3  21
ATOM     21  N   UNL     1      22.780   8.792  20.523  1.00  0.00    -0.321 N 
ATOM     22  C   UNL     1      21.994   8.476  19.429  1.00  0.00     0.274 C 
ATOM     23  O   UNL     1      21.173   9.223  18.913  1.00  0.00    -0.267 OA
ATOM     24  H   UNL     1      23.311   8.053  20.899  1.00  0.00     0.170 HD
BRANCH  22  25
ATOM     25  C   UNL     1      22.223   7.129  18.852  1.00  0.00     0.128 A 
ATOM     26  N   UNL     1      21.950   6.089  19.647  1.00  0.00    -0.248 NA
ATOM     27  C   UNL     1      22.685   7.003  17.554  1.00  0.00     0.037 A 
ATOM     28  C   UNL     1      22.154   4.859  19.148  1.00  0.00     0.151 A 
ATOM     29  C   UNL     1      22.880   5.723  17.066  1.00  0.00     0.043 A 
ATOM     30  C   UNL     1      22.617   4.632  17.871  1.00  0.00     0.141 A 
ATOM     31  F   UNL     1      22.782   3.371  17.438  1.00  0.00    -0.205 F 
ENDBRANCH  22  25
ENDBRANCH   3  21
TORSDOF 3
ENDMDL
MODEL 14
REMARK VINA RESULT:    -6.925      4.472      7.379
REMARK INTER + INTRA:          -8.362
REMARK INTER:                  -7.976
REMARK INTRA:                  -0.386
REMARK UNBOUND:                -0.223
REMARK SMILES CN1C(N)=N[C@](C)(c2cc(NC(=O)c3ccc(F)cn3)ccc2F)CS1(=O)=O
REMARK SMILES IDX 8 1 9 2 10 3 21 4 22 5 23 6 24 7 6 8 25 9 5 10 26 11 3 12
REMARK SMILES IDX 27 13 2 14 28 15 4 16 7 17 1 18 11 21 12 22 13 23 14 25
REMARK SMILES IDX 20 26 15 27 19 28 16 29 17 30 18 31
REMARK H PARENT 4 19 4 20 11 24
ROOT
ATOM      1  C   UNL     1      23.056  11.977  19.860  1.00  0.00     0.018 A 
ATOM      2  C   UNL     1      23.288  10.711  19.323  1.00  0.00     0.035 A 
ATOM      3  C   UNL     1      22.573  10.223  18.252  1.00  0.00     0.042 A 
ATOM      4  C   UNL     1      21.564  10.984  17.675  1.00  0.00     0.029 A 
ATOM      5  C   UNL     1      21.322  12.244  18.193  1.00  0.00     0.042 A 
ATOM      6  C   UNL     1      22.069  12.733  19.247  1.00  0.00     0.129 A 
ATOM      7  F   UNL     1      21.831  13.984  19.717  1.00  0.00    -0.207 F 
ENDROOT
BRANCH   1   8
ATOM      8  C   UNL     1      23.864  12.488  21.042  1.00  0.00     0.105 C 
ATOM      9  C   UNL     1      24.470  13.862  20.857  1.00  0.00     0.195 C 
ATOM     10  N   UNL     1      24.895  11.537  21.455  1.00  0.00    -0.240 NA
ATOM     11  S   UNL     1      25.656  13.852  19.536  1.00  0.00     0.239 S 
ATOM     12  C   UNL     1      26.037  11.461  20.844  1.00  0.00     0.205 C 
ATOM     13  O   UNL     1      26.616  14.900  19.834  1.00  0.00    -0.206 OA
ATOM     14  N   UNL     1      26.440  12.347  19.820  1.00  0.00    -0.243 N 
ATOM     15  O   UNL     1      25.027  13.676  18.264  1.00  0.00    -0.206 OA
ATOM     16  N   UNL     1      26.975  10.516  21.163  1.00  0.00    -0.369 N 
ATOM     17  C   UNL     1      22.953  12.561  22.270  1.00  0.00     0.044 C 
ATOM     18  C   UNL     1      27.688  12.172  19.051  1.00  0.00     0.167 C 
ATOM     19  H   UNL     1      26.786   9.853  21.866  1.00  0.00     0.159 HD
ATOM     20  H   UNL     1      27.838  10.500  20.691  1.00  0.00     0.159 HD
ENDBRANCH   1   8
BRANCH   3  21
ATOM     21  N   UNL     1      22.904   8.935  17.812  1.00  0.00    -0.321 N 
ATOM     22  C   UNL     1      22.404   7.723  18.255  1.00  0.00     0.274 C 
ATOM     23  O   UNL     1      21.665   7.577  19.219  1.00  0.00    -0.267 OA
ATOM     24  H   UNL     1      23.577   8.886  17.095  1.00  0.00     0.170 HD
BRANCH  22  25
ATOM     25  C   UNL     1      22.795   6.543  17.445  1.00  0.00     0.128 A 
ATOM     26  N   UNL     1      23.417   6.797  16.290  1.00  0.00    -0.248 NA
ATOM     27  C   UNL     1      22.519   5.268  17.906  1.00  0.00     0.037 A 
ATOM     28  C   UNL     1      23.777   5.744  15.538  1.00  0.00     0.151 A 
ATOM     29  C   UNL     1      22.907   4.203  17.112  1.00  0.00     0.043 A 
ATOM     30  C   UNL     1      23.541   4.439  15.907  1.00  0.00     0.141 A 
ATOM     31  F   UNL     1      23.944   3.438  15.107  1.00  0.00    -0.205 F 
ENDBRANCH  22  25
ENDBRANCH   3  21
TORSDOF 3
ENDMDL
MODEL 15
REMARK VINA RESULT:    -6.901      8.402     11.862
REMARK INTER + INTRA:          -8.334
REMARK INTER:                  -8.099
REMARK INTRA:                  -0.235
REMARK UNBOUND:                -0.223
REMARK SMILES CN1C(N)=N[C@](C)(c2cc(NC(=O)c3ccc(F)cn3)ccc2F)CS1(=O)=O
REMARK SMILES IDX 8 1 9 2 10 3 21 4 22 5 23 6 24 7 6 8 25 9 5 10 26 11 3 12
REMARK SMILES IDX 27 13 2 14 28 15 4 16 7 17 1 18 11 21 12 22 13 23 14 25
REMARK SMILES IDX 20 26 15 27 19 28 16 29 17 30 18 31
REMARK H PARENT 4 19 4 20 11 24
ROOT
ATOM      1  C   UNL     1      24.043   6.638  14.878  1.00  0.00     0.018 A 
ATOM      2  C   UNL     1      25.422   6.788  15.017  1.00  0.00     0.035 A 
ATOM      3  C   UNL     1      26.303   6.468  14.009  1.00  0.00     0.042 A 
ATOM      4  C   UNL     1      25.838   5.953  12.806  1.00  0.00     0.029 A 
ATOM      5  C   UNL     1      24.472   5.800  12.649  1.00  0.00     0.042 A 
ATOM      6  C   UNL     1      23.598   6.156  13.657  1.00  0.00     0.129 A 
ATOM      7  F   UNL     1      22.260   6.024  13.466  1.00  0.00    -0.207 F 
ENDROOT
BRANCH   1   8
ATOM      8  C   UNL     1      23.095   7.004  16.009  1.00  0.00     0.105 C 
ATOM      9  C   UNL     1      21.856   7.761  15.587  1.00  0.00     0.195 C 
ATOM     10  N   UNL     1      23.777   7.719  17.087  1.00  0.00    -0.240 NA
ATOM     11  S   UNL     1      22.289   9.340  14.902  1.00  0.00     0.239 S 
ATOM     12  C   UNL     1      24.014   8.992  17.017  1.00  0.00     0.205 C 
ATOM     13  O   UNL     1      21.159  10.220  15.141  1.00  0.00    -0.206 OA
ATOM     14  N   UNL     1      23.546   9.823  15.975  1.00  0.00    -0.243 N 
ATOM     15  O   UNL     1      22.949   9.205  13.641  1.00  0.00    -0.206 OA
ATOM     16  N   UNL     1      24.729   9.656  17.978  1.00  0.00    -0.369 N 
ATOM     17  C   UNL     1      22.624   5.719  16.695  1.00  0.00     0.044 C 
ATOM     18  C   UNL     1      23.928  11.243  15.844  1.00  0.00     0.167 C 
ATOM     19  H   UNL     1      25.098   9.163  18.746  1.00  0.00     0.159 HD
ATOM     20  H   UNL     1      24.874  10.627  17.901  1.00  0.00     0.159 HD
ENDBRANCH   1   8
BRANCH   3  21
ATOM     21  N   UNL     1      27.664   6.664  14.279  1.00  0.00    -0.321 N 
ATOM     22  C   UNL     1      28.549   5.796  14.893  1.00  0.00     0.274 C 
ATOM     23  O   UNL     1      28.243   4.738  15.427  1.00  0.00    -0.267 OA
ATOM     24  H   UNL     1      28.037   7.529  13.995  1.00  0.00     0.170 HD
BRANCH  22  25
ATOM     25  C   UNL     1      29.974   6.206  14.844  1.00  0.00     0.128 A 
ATOM     26  N   UNL     1      30.627   5.947  13.706  1.00  0.00    -0.248 NA
ATOM     27  C   UNL     1      30.552   6.829  15.937  1.00  0.00     0.037 A 
ATOM     28  C   UNL     1      31.919   6.305  13.640  1.00  0.00     0.151 A 
ATOM     29  C   UNL     1      31.883   7.191  15.836  1.00  0.00     0.043 A 
ATOM     30  C   UNL     1      32.583   6.924  14.675  1.00  0.00     0.141 A 
ATOM     31  F   UNL     1      33.874   7.266  14.528  1.00  0.00    -0.205 F 
ENDBRANCH  22  25
ENDBRANCH   3  21
TORSDOF 3
ENDMDL
MODEL 16
REMARK VINA RESULT:    -6.901      5.499      7.274
REMARK INTER + INTRA:          -8.334
REMARK INTER:                  -8.872
REMARK INTRA:                   0.538
REMARK UNBOUND:                -0.223
REMARK SMILES CN1C(N)=N[C@](C)(c2cc(NC(=O)c3ccc(F)cn3)ccc2F)CS1(=O)=O
REMARK SMILES IDX 8 1 9 2 10 3 21 4 22 5 23 6 24 7 6 8 25 9 5 10 26 11 3 12
REMARK SMILES IDX 27 13 2 14 28 15 4 16 7 17 1 18 11 21 12 22 13 23 14 25
REMARK SMILES IDX 20 26 15 27 19 28 16 29 17 30 18 31
REMARK H PARENT 4 19 4 20 11 24
ROOT
ATOM      1  C   UNL     1      22.694   7.661  17.314  1.00  0.00     0.018 A 
ATOM      2  C   UNL     1      22.882   8.445  18.451  1.00  0.00     0.035 A 
ATOM      3  C   UNL     1      22.268   8.163  19.650  1.00  0.00     0.042 A 
ATOM      4  C   UNL     1      21.407   7.078  19.761  1.00  0.00     0.029 A 
ATOM      5  C   UNL     1      21.210   6.287  18.643  1.00  0.00     0.042 A 
ATOM      6  C   UNL     1      21.858   6.564  17.456  1.00  0.00     0.129 A 
ATOM      7  F   UNL     1      21.671   5.754  16.381  1.00  0.00    -0.207 F 
ENDROOT
BRANCH   1   8
ATOM      8  C   UNL     1      23.389   7.998  16.004  1.00  0.00     0.105 C 
ATOM      9  C   UNL     1      23.507   9.475  15.703  1.00  0.00     0.195 C 
ATOM     10  N   UNL     1      22.787   7.301  14.869  1.00  0.00    -0.240 NA
ATOM     11  S   UNL     1      21.902  10.205  15.502  1.00  0.00     0.239 S 
ATOM     12  C   UNL     1      21.714   7.742  14.289  1.00  0.00     0.205 C 
ATOM     13  O   UNL     1      22.071  11.341  14.613  1.00  0.00    -0.206 OA
ATOM     14  N   UNL     1      21.099   8.973  14.607  1.00  0.00    -0.243 N 
ATOM     15  O   UNL     1      21.185  10.252  16.738  1.00  0.00    -0.206 OA
ATOM     16  N   UNL     1      21.091   7.053  13.283  1.00  0.00    -0.369 N 
ATOM     17  C   UNL     1      24.811   7.432  16.040  1.00  0.00     0.044 C 
ATOM     18  C   UNL     1      19.811   9.403  14.026  1.00  0.00     0.167 C 
ATOM     19  H   UNL     1      21.446   6.183  12.989  1.00  0.00     0.159 HD
ATOM     20  H   UNL     1      20.288   7.428  12.853  1.00  0.00     0.159 HD
ENDBRANCH   1   8
BRANCH   3  21
ATOM     21  N   UNL     1      22.540   9.032  20.715  1.00  0.00    -0.321 N 
ATOM     22  C   UNL     1      22.388  10.406  20.760  1.00  0.00     0.274 C 
ATOM     23  O   UNL     1      22.103  11.115  19.803  1.00  0.00    -0.267 OA
ATOM     24  H   UNL     1      22.882   8.610  21.536  1.00  0.00     0.170 HD
BRANCH  22  25
ATOM     25  C   UNL     1      22.559  11.019  22.099  1.00  0.00     0.128 A 
ATOM     26  N   UNL     1      22.624  10.174  23.134  1.00  0.00    -0.248 NA
ATOM     27  C   UNL     1      22.653  12.394  22.223  1.00  0.00     0.037 A 
ATOM     28  C   UNL     1      22.775  10.706  24.358  1.00  0.00     0.151 A 
ATOM     29  C   UNL     1      22.814  12.912  23.496  1.00  0.00     0.043 A 
ATOM     30  C   UNL     1      22.872  12.061  24.583  1.00  0.00     0.141 A 
ATOM     31  F   UNL     1      23.037  12.517  25.836  1.00  0.00    -0.205 F 
ENDBRANCH  22  25
ENDBRANCH   3  21
TORSDOF 3
ENDMDL
MODEL 17
REMARK VINA RESULT:    -6.864      7.030     10.500
REMARK INTER + INTRA:          -8.291
REMARK INTER:                  -7.844
REMARK INTRA:                  -0.447
REMARK UNBOUND:                -0.223
REMARK SMILES CN1C(N)=N[C@](C)(c2cc(NC(=O)c3ccc(F)cn3)ccc2F)CS1(=O)=O
REMARK SMILES IDX 8 1 9 2 10 3 21 4 22 5 23 6 24 7 6 8 25 9 5 10 26 11 3 12
REMARK SMILES IDX 27 13 2 14 28 15 4 16 7 17 1 18 11 21 12 22 13 23 14 25
REMARK SMILES IDX 20 26 15 27 19 28 16 29 17 30 18 31
REMARK H PARENT 4 19 4 20 11 24
ROOT
ATOM      1  C   UNL     1      22.510   8.263  17.608  1.00  0.00     0.018 A 
ATOM      2  C   UNL     1      23.684   7.782  17.029  1.00  0.00     0.035 A 
ATOM      3  C   UNL     1      23.715   6.632  16.275  1.00  0.00     0.042 A 
ATOM      4  C   UNL     1      22.559   5.886  16.081  1.00  0.00     0.029 A 
ATOM      5  C   UNL     1      21.384   6.349  16.646  1.00  0.00     0.042 A 
ATOM      6  C   UNL     1      21.361   7.522  17.374  1.00  0.00     0.129 A 
ATOM      7  F   UNL     1      20.190   7.971  17.893  1.00  0.00    -0.207 F 
ENDROOT
BRANCH   1   8
ATOM      8  C   UNL     1      22.507   9.540  18.434  1.00  0.00     0.105 C 
ATOM      9  C   UNL     1      21.442  10.545  18.057  1.00  0.00     0.195 C 
ATOM     10  N   UNL     1      23.820  10.183  18.454  1.00  0.00    -0.240 NA
ATOM     11  S   UNL     1      21.698  11.139  16.404  1.00  0.00     0.239 S 
ATOM     12  C   UNL     1      24.223  10.940  17.481  1.00  0.00     0.205 C 
ATOM     13  O   UNL     1      21.132  12.475  16.351  1.00  0.00    -0.206 OA
ATOM     14  N   UNL     1      23.411  11.310  16.385  1.00  0.00    -0.243 N 
ATOM     15  O   UNL     1      21.446  10.120  15.432  1.00  0.00    -0.206 OA
ATOM     16  N   UNL     1      25.482  11.477  17.445  1.00  0.00    -0.369 N 
ATOM     17  C   UNL     1      22.281   9.177  19.905  1.00  0.00     0.044 C 
ATOM     18  C   UNL     1      23.921  12.068  15.226  1.00  0.00     0.167 C 
ATOM     19  H   UNL     1      26.122  11.277  18.166  1.00  0.00     0.159 HD
ATOM     20  H   UNL     1      25.747  12.062  16.699  1.00  0.00     0.159 HD
ENDBRANCH   1   8
BRANCH   3  21
ATOM     21  N   UNL     1      24.959   6.258  15.751  1.00  0.00    -0.321 N 
ATOM     22  C   UNL     1      25.489   6.551  14.507  1.00  0.00     0.274 C 
ATOM     23  O   UNL     1      24.882   7.093  13.593  1.00  0.00    -0.267 OA
ATOM     24  H   UNL     1      25.530   5.718  16.345  1.00  0.00     0.170 HD
BRANCH  22  25
ATOM     25  C   UNL     1      26.917   6.193  14.327  1.00  0.00     0.128 A 
ATOM     26  N   UNL     1      27.483   5.494  15.316  1.00  0.00    -0.248 NA
ATOM     27  C   UNL     1      27.585   6.574  13.175  1.00  0.00     0.037 A 
ATOM     28  C   UNL     1      28.777   5.162  15.177  1.00  0.00     0.151 A 
ATOM     29  C   UNL     1      28.915   6.212  13.058  1.00  0.00     0.043 A 
ATOM     30  C   UNL     1      29.526   5.500  14.073  1.00  0.00     0.141 A 
ATOM     31  F   UNL     1      30.812   5.118  13.999  1.00  0.00    -0.205 F 
ENDBRANCH  22  25
ENDBRANCH   3  21
TORSDOF 3
ENDMDL
MODEL 18
REMARK VINA RESULT:    -6.817      8.530      9.916
REMARK INTER + INTRA:          -8.235
REMARK INTER:                  -8.547
REMARK INTRA:                   0.312
REMARK UNBOUND:                -0.223
REMARK SMILES CN1C(N)=N[C@](C)(c2cc(NC(=O)c3ccc(F)cn3)ccc2F)CS1(=O)=O
REMARK SMILES IDX 8 1 9 2 10 3 21 4 22 5 23 6 24 7 6 8 25 9 5 10 26 11 3 12
REMARK SMILES IDX 27 13 2 14 28 15 4 16 7 17 1 18 11 21 12 22 13 23 14 25
REMARK SMILES IDX 20 26 15 27 19 28 16 29 17 30 18 31
REMARK H PARENT 4 19 4 20 11 24
ROOT
ATOM      1  C   UNL     1      27.462   6.620  14.653  1.00  0.00     0.018 A 
ATOM      2  C   UNL     1      26.236   6.488  15.303  1.00  0.00     0.035 A 
ATOM      3  C   UNL     1      25.063   6.252  14.622  1.00  0.00     0.042 A 
ATOM      4  C   UNL     1      25.061   6.158  13.236  1.00  0.00     0.029 A 
ATOM      5  C   UNL     1      26.270   6.282  12.575  1.00  0.00     0.042 A 
ATOM      6  C   UNL     1      27.443   6.487  13.273  1.00  0.00     0.129 A 
ATOM      7  F   UNL     1      28.620   6.576  12.602  1.00  0.00    -0.207 F 
ENDROOT
BRANCH   1   8
ATOM      8  C   UNL     1      28.741   6.877  15.434  1.00  0.00     0.105 C 
ATOM      9  C   UNL     1      28.587   7.781  16.637  1.00  0.00     0.195 C 
ATOM     10  N   UNL     1      29.820   7.365  14.575  1.00  0.00    -0.240 NA
ATOM     11  S   UNL     1      28.089   9.410  16.138  1.00  0.00     0.239 S 
ATOM     12  C   UNL     1      29.905   8.613  14.231  1.00  0.00     0.205 C 
ATOM     13  O   UNL     1      28.588  10.323  17.150  1.00  0.00    -0.206 OA
ATOM     14  N   UNL     1      29.059   9.626  14.732  1.00  0.00    -0.243 N 
ATOM     15  O   UNL     1      26.750   9.421  15.635  1.00  0.00    -0.206 OA
ATOM     16  N   UNL     1      30.857   9.066  13.357  1.00  0.00    -0.369 N 
ATOM     17  C   UNL     1      29.287   5.540  15.943  1.00  0.00     0.044 C 
ATOM     18  C   UNL     1      29.088  11.017  14.238  1.00  0.00     0.167 C 
ATOM     19  H   UNL     1      31.495   8.434  12.954  1.00  0.00     0.159 HD
ATOM     20  H   UNL     1      30.904  10.024  13.133  1.00  0.00     0.159 HD
ENDBRANCH   1   8
BRANCH   3  21
ATOM     21  N   UNL     1      23.900   6.143  15.395  1.00  0.00    -0.321 N 
ATOM     22  C   UNL     1      23.378   5.016  16.005  1.00  0.00     0.274 C 
ATOM     23  O   UNL     1      23.797   3.876  15.853  1.00  0.00    -0.267 OA
ATOM     24  H   UNL     1      23.389   6.975  15.521  1.00  0.00     0.170 HD
BRANCH  22  25
ATOM     25  C   UNL     1      22.246   5.263  16.931  1.00  0.00     0.128 A 
ATOM     26  N   UNL     1      21.752   4.193  17.562  1.00  0.00    -0.248 NA
ATOM     27  C   UNL     1      21.767   6.550  17.109  1.00  0.00     0.037 A 
ATOM     28  C   UNL     1      20.724   4.392  18.403  1.00  0.00     0.151 A 
ATOM     29  C   UNL     1      20.711   6.723  17.986  1.00  0.00     0.043 A 
ATOM     30  C   UNL     1      20.175   5.632  18.642  1.00  0.00     0.141 A 
ATOM     31  F   UNL     1      19.156   5.753  19.509  1.00  0.00    -0.205 F 
ENDBRANCH  22  25
ENDBRANCH   3  21
TORSDOF 3
ENDMDL
MODEL 19
REMARK VINA RESULT:    -6.792      3.721      5.962
REMARK INTER + INTRA:          -8.205
REMARK INTER:                  -7.770
REMARK INTRA:                  -0.435
REMARK UNBOUND:                -0.223
REMARK SMILES CN1C(N)=N[C@](C)(c2cc(NC(=O)c3ccc(F)cn3)ccc2F)CS1(=O)=O
REMARK SMILES IDX 8 1 9 2 10 3 21 4 22 5 23 6 24 7 6 8 25 9 5 10 26 11 3 12
REMARK SMILES IDX 27 13 2 14 28 15 4 16 7 17 1 18 11 21 12 22 13 23 14 25
REMARK SMILES IDX 20 26 15 27 19 28 16 29 17 30 18 31
REMARK H PARENT 4 19 4 20 11 24
ROOT
ATOM      1  C   UNL     1      25.399  12.864  22.640  1.00  0.00     0.018 A 
ATOM      2  C   UNL     1      24.685  11.912  21.914  1.00  0.00     0.035 A 
ATOM      3  C   UNL     1      23.332  11.720  22.083  1.00  0.00     0.042 A 
ATOM      4  C   UNL     1      22.626  12.469  23.016  1.00  0.00     0.029 A 
ATOM      5  C   UNL     1      23.318  13.421  23.743  1.00  0.00     0.042 A 
ATOM      6  C   UNL     1      24.669  13.625  23.540  1.00  0.00     0.129 A 
ATOM      7  F   UNL     1      25.319  14.587  24.245  1.00  0.00    -0.207 F 
ENDROOT
BRANCH   1   8
ATOM      8  C   UNL     1      26.893  13.054  22.428  1.00  0.00     0.105 C 
ATOM      9  C   UNL     1      27.310  14.452  22.029  1.00  0.00     0.195 C 
ATOM     10  N   UNL     1      27.442  12.078  21.489  1.00  0.00    -0.240 NA
ATOM     11  S   UNL     1      26.625  14.884  20.449  1.00  0.00     0.239 S 
ATOM     12  C   UNL     1      27.349  12.240  20.205  1.00  0.00     0.205 C 
ATOM     13  O   UNL     1      27.531  15.850  19.854  1.00  0.00    -0.206 OA
ATOM     14  N   UNL     1      26.826  13.403  19.596  1.00  0.00    -0.243 N 
ATOM     15  O   UNL     1      25.206  15.050  20.517  1.00  0.00    -0.206 OA
ATOM     16  N   UNL     1      27.780  11.293  19.315  1.00  0.00    -0.369 N 
ATOM     17  C   UNL     1      27.623  12.724  23.733  1.00  0.00     0.044 C 
ATOM     18  C   UNL     1      26.611  13.521  18.140  1.00  0.00     0.167 C 
ATOM     19  H   UNL     1      28.161  10.447  19.644  1.00  0.00     0.159 HD
ATOM     20  H   UNL     1      27.710  11.458  18.347  1.00  0.00     0.159 HD
ENDBRANCH   1   8
BRANCH   3  21
ATOM     21  N   UNL     1      22.735  10.728  21.293  1.00  0.00    -0.321 N 
ATOM     22  C   UNL     1      22.304  10.821  19.982  1.00  0.00     0.274 C 
ATOM     23  O   UNL     1      22.259  11.854  19.327  1.00  0.00    -0.267 OA
ATOM     24  H   UNL     1      22.607   9.853  21.727  1.00  0.00     0.170 HD
BRANCH  22  25
ATOM     25  C   UNL     1      21.908   9.538  19.354  1.00  0.00     0.128 A 
ATOM     26  N   UNL     1      22.282   8.424  19.992  1.00  0.00    -0.248 NA
ATOM     27  C   UNL     1      21.181   9.540  18.175  1.00  0.00     0.037 A 
ATOM     28  C   UNL     1      21.938   7.249  19.439  1.00  0.00     0.151 A 
ATOM     29  C   UNL     1      20.837   8.315  17.633  1.00  0.00     0.043 A 
ATOM     30  C   UNL     1      21.222   7.149  18.268  1.00  0.00     0.141 A 
ATOM     31  F   UNL     1      20.903   5.937  17.784  1.00  0.00    -0.205 F 
ENDBRANCH  22  25
ENDBRANCH   3  21
TORSDOF 3
ENDMDL
MODEL 20
REMARK VINA RESULT:    -6.729      8.447     11.704
REMARK INTER + INTRA:          -8.132
REMARK INTER:                  -7.767
REMARK INTRA:                  -0.365
REMARK UNBOUND:                -0.223
REMARK SMILES CN1C(N)=N[C@](C)(c2cc(NC(=O)c3ccc(F)cn3)ccc2F)CS1(=O)=O
REMARK SMILES IDX 8 1 9 2 10 3 21 4 22 5 23 6 24 7 6 8 25 9 5 10 26 11 3 12
REMARK SMILES IDX 27 13 2 14 28 15 4 16 7 17 1 18 11 21 12 22 13 23 14 25
REMARK SMILES IDX 20 26 15 27 19 28 16 29 17 30 18 31
REMARK H PARENT 4 19 4 20 11 24
ROOT
ATOM      1  C   UNL     1      22.157   7.290  16.583  1.00  0.00     0.018 A 
ATOM      2  C   UNL     1      23.441   7.102  16.074  1.00  0.00     0.035 A 
ATOM      3  C   UNL     1      24.038   5.863  16.022  1.00  0.00     0.042 A 
ATOM      4  C   UNL     1      23.376   4.742  16.505  1.00  0.00     0.029 A 
ATOM      5  C   UNL     1      22.099   4.909  17.011  1.00  0.00     0.042 A 
ATOM      6  C   UNL     1      21.500   6.153  17.028  1.00  0.00     0.129 A 
ATOM      7  F   UNL     1      20.234   6.286  17.502  1.00  0.00    -0.207 F 
ENDROOT
BRANCH   1   8
ATOM      8  C   UNL     1      21.523   8.672  16.624  1.00  0.00     0.105 C 
ATOM      9  C   UNL     1      20.230   8.807  15.852  1.00  0.00     0.195 C 
ATOM     10  N   UNL     1      22.461   9.718  16.219  1.00  0.00    -0.240 NA
ATOM     11  S   UNL     1      20.504   8.544  14.118  1.00  0.00     0.239 S 
ATOM     12  C   UNL     1      22.693   9.979  14.970  1.00  0.00     0.205 C 
ATOM     13  O   UNL     1      19.481   9.300  13.418  1.00  0.00    -0.206 OA
ATOM     14  N   UNL     1      21.994   9.379  13.899  1.00  0.00    -0.243 N 
ATOM     15  O   UNL     1      20.831   7.181  13.836  1.00  0.00    -0.206 OA
ATOM     16  N   UNL     1      23.632  10.894  14.577  1.00  0.00    -0.369 N 
ATOM     17  C   UNL     1      21.216   9.032  18.080  1.00  0.00     0.044 C 
ATOM     18  C   UNL     1      22.354   9.592  12.483  1.00  0.00     0.167 C 
ATOM     19  H   UNL     1      24.172  11.367  15.251  1.00  0.00     0.159 HD
ATOM     20  H   UNL     1      23.769  11.080  13.619  1.00  0.00     0.159 HD
ENDBRANCH   1   8
BRANCH   3  21
ATOM     21  N   UNL     1      25.333   5.812  15.489  1.00  0.00    -0.321 N 
ATOM     22  C   UNL     1      25.727   5.991  14.175  1.00  0.00     0.274 C 
ATOM     23  O   UNL     1      24.967   6.099  13.221  1.00  0.00    -0.267 OA
ATOM     24  H   UNL     1      26.055   5.626  16.132  1.00  0.00     0.170 HD
BRANCH  22  25
ATOM     25  C   UNL     1      27.191   6.087  13.960  1.00  0.00     0.128 A 
ATOM     26  N   UNL     1      27.586   6.690  12.834  1.00  0.00    -0.248 NA
ATOM     27  C   UNL     1      28.063   5.576  14.905  1.00  0.00     0.037 A 
ATOM     28  C   UNL     1      28.908   6.785  12.615  1.00  0.00     0.151 A 
ATOM     29  C   UNL     1      29.419   5.695  14.654  1.00  0.00     0.043 A 
ATOM     30  C   UNL     1      29.853   6.303  13.492  1.00  0.00     0.141 A 
ATOM     31  F   UNL     1      31.159   6.449  13.210  1.00  0.00    -0.205 F 
ENDBRANCH  22  25
ENDBRANCH   3  21
TORSDOF 3
ENDMDL
