MODEL 1
REMARK VINA RESULT:    -9.536      0.000      0.000
REMARK INTER + INTRA:         -11.486
REMARK INTER:                 -11.209
REMARK INTRA:                  -0.277
REMARK UNBOUND:                -0.277
REMARK SMILES CN1C(N)=N[C@](C)(c2cc(NC(=O)c3ccc(F)cn3)ccc2F)CS1(=O)=O
REMARK SMILES IDX 8 1 9 2 10 3 21 4 22 5 23 6 24 7 6 8 25 9 5 10 26 11 3 12
REMARK SMILES IDX 27 13 2 14 28 15 4 16 7 17 1 18 11 21 12 22 13 23 14 25
REMARK SMILES IDX 20 26 15 27 19 28 16 29 17 30 18 31
REMARK H PARENT 4 19 4 20 11 24
ROOT
ATOM      1  C   UNL     1      22.884  10.503  20.583  1.00  0.00     0.018 A 
ATOM      2  C   UNL     1      24.165  10.119  20.977  1.00  0.00     0.035 A 
ATOM      3  C   UNL     1      25.292  10.485  20.277  1.00  0.00     0.042 A 
ATOM      4  C   UNL     1      25.185  11.247  19.120  1.00  0.00     0.029 A 
ATOM      5  C   UNL     1      23.921  11.640  18.716  1.00  0.00     0.042 A 
ATOM      6  C   UNL     1      22.802  11.292  19.445  1.00  0.00     0.129 A 
ATOM      7  F   UNL     1      21.576  11.715  19.043  1.00  0.00    -0.207 F 
ENDROOT
BRANCH   1   8
ATOM      8  C   UNL     1      21.658  10.084  21.379  1.00  0.00     0.105 C 
ATOM      9  C   UNL     1      20.774  11.221  21.840  1.00  0.00     0.195 C 
ATOM     10  N   UNL     1      22.006   9.227  22.512  1.00  0.00    -0.240 NA
ATOM     11  S   UNL     1      21.647  12.273  22.973  1.00  0.00     0.239 S 
ATOM     12  C   UNL     1      22.434   9.720  23.633  1.00  0.00     0.205 C 
ATOM     13  O   UNL     1      20.645  12.873  23.836  1.00  0.00    -0.206 OA
ATOM     14  N   UNL     1      22.493  11.104  23.911  1.00  0.00    -0.243 N 
ATOM     15  O   UNL     1      22.686  13.005  22.320  1.00  0.00    -0.206 OA
ATOM     16  N   UNL     1      22.846   8.927  24.670  1.00  0.00    -0.369 N 
ATOM     17  C   UNL     1      20.793   9.168  20.509  1.00  0.00     0.044 C 
ATOM     18  C   UNL     1      23.097  11.652  25.142  1.00  0.00     0.167 C 
ATOM     19  H   UNL     1      22.841   7.947  24.572  1.00  0.00     0.159 HD
ATOM     20  H   UNL     1      23.148   9.336  25.513  1.00  0.00     0.159 HD
ENDBRANCH   1   8
BRANCH   3  21
ATOM     21  N   UNL     1      26.518  10.031  20.779  1.00  0.00    -0.321 N 
ATOM     22  C   UNL     1      27.658  10.766  21.052  1.00  0.00     0.274 C 
ATOM     23  O   UNL     1      27.820  11.946  20.770  1.00  0.00    -0.267 OA
ATOM     24  H   UNL     1      26.576   9.065  20.962  1.00  0.00     0.170 HD
BRANCH  22  25
ATOM     25  C   UNL     1      28.726  10.033  21.776  1.00  0.00     0.128 A 
ATOM     26  N   UNL     1      29.708  10.777  22.295  1.00  0.00    -0.248 NA
ATOM     27  C   UNL     1      28.662   8.655  21.892  1.00  0.00     0.037 A 
ATOM     28  C   UNL     1      30.688  10.135  22.951  1.00  0.00     0.151 A 
ATOM     29  C   UNL     1      29.683   8.024  22.579  1.00  0.00     0.043 A 
ATOM     30  C   UNL     1      30.716   8.769  23.114  1.00  0.00     0.141 A 
ATOM     31  F   UNL     1      31.724   8.200  23.797  1.00  0.00    -0.205 F 
ENDBRANCH  22  25
ENDBRANCH   3  21
TORSDOF 3
ENDMDL
MODEL 2
REMARK VINA RESULT:    -8.562      4.749      7.407
REMARK INTER + INTRA:         -10.341
REMARK INTER:                  -9.933
REMARK INTRA:                  -0.408
REMARK UNBOUND:                -0.277
REMARK SMILES CN1C(N)=N[C@](C)(c2cc(NC(=O)c3ccc(F)cn3)ccc2F)CS1(=O)=O
REMARK SMILES IDX 8 1 9 2 10 3 21 4 22 5 23 6 24 7 6 8 25 9 5 10 26 11 3 12
REMARK SMILES IDX 27 13 2 14 28 15 4 16 7 17 1 18 11 21 12 22 13 23 14 25
REMARK SMILES IDX 20 26 15 27 19 28 16 29 17 30 18 31
REMARK H PARENT 4 19 4 20 11 24
ROOT
ATOM      1  C   UNL     1      20.674  12.377  26.758  1.00  0.00     0.018 A 
ATOM      2  C   UNL     1      21.074  12.690  25.460  1.00  0.00     0.035 A 
ATOM      3  C   UNL     1      21.470  11.728  24.559  1.00  0.00     0.042 A 
ATOM      4  C   UNL     1      21.505  10.389  24.929  1.00  0.00     0.029 A 
ATOM      5  C   UNL     1      21.108  10.059  26.213  1.00  0.00     0.042 A 
ATOM      6  C   UNL     1      20.682  11.032  27.096  1.00  0.00     0.129 A 
ATOM      7  F   UNL     1      20.270  10.679  28.340  1.00  0.00    -0.207 F 
ENDROOT
BRANCH   1   8
ATOM      8  C   UNL     1      20.239  13.463  27.729  1.00  0.00     0.105 C 
ATOM      9  C   UNL     1      18.926  13.204  28.435  1.00  0.00     0.195 C 
ATOM     10  N   UNL     1      20.219  14.784  27.102  1.00  0.00    -0.240 NA
ATOM     11  S   UNL     1      17.588  13.150  27.270  1.00  0.00     0.239 S 
ATOM     12  C   UNL     1      19.218  15.180  26.378  1.00  0.00     0.205 C 
ATOM     13  O   UNL     1      16.396  13.561  27.990  1.00  0.00    -0.206 OA
ATOM     14  N   UNL     1      18.022  14.444  26.221  1.00  0.00    -0.243 N 
ATOM     15  O   UNL     1      17.663  11.993  26.434  1.00  0.00    -0.206 OA
ATOM     16  N   UNL     1      19.225  16.377  25.714  1.00  0.00    -0.369 N 
ATOM     17  C   UNL     1      21.309  13.614  28.814  1.00  0.00     0.044 C 
ATOM     18  C   UNL     1      16.944  14.848  25.297  1.00  0.00     0.167 C 
ATOM     19  H   UNL     1      20.015  16.962  25.763  1.00  0.00     0.159 HD
ATOM     20  H   UNL     1      18.439  16.653  25.188  1.00  0.00     0.159 HD
ENDBRANCH   1   8
BRANCH   3  21
ATOM     21  N   UNL     1      21.850  12.177  23.287  1.00  0.00    -0.321 N 
ATOM     22  C   UNL     1      23.121  12.478  22.829  1.00  0.00     0.274 C 
ATOM     23  O   UNL     1      24.127  12.523  23.524  1.00  0.00    -0.267 OA
ATOM     24  H   UNL     1      21.120  12.291  22.637  1.00  0.00     0.170 HD
BRANCH  22  25
ATOM     25  C   UNL     1      23.226  12.726  21.371  1.00  0.00     0.128 A 
ATOM     26  N   UNL     1      24.460  12.898  20.886  1.00  0.00    -0.248 NA
ATOM     27  C   UNL     1      22.083  12.756  20.591  1.00  0.00     0.037 A 
ATOM     28  C   UNL     1      24.580  13.128  19.568  1.00  0.00     0.151 A 
ATOM     29  C   UNL     1      22.239  12.989  19.236  1.00  0.00     0.043 A 
ATOM     30  C   UNL     1      23.503  13.183  18.713  1.00  0.00     0.141 A 
ATOM     31  F   UNL     1      23.705  13.403  17.402  1.00  0.00    -0.205 F 
ENDBRANCH  22  25
ENDBRANCH   3  21
TORSDOF 3
ENDMDL
MODEL 3
REMARK VINA RESULT:    -8.372      3.361      6.952
REMARK INTER + INTRA:         -10.118
REMARK INTER:                  -9.708
REMARK INTRA:                  -0.410
REMARK UNBOUND:                -0.277
REMARK SMILES CN1C(N)=N[C@](C)(c2cc(NC(=O)c3ccc(F)cn3)ccc2F)CS1(=O)=O
REMARK SMILES IDX 8 1 9 2 10 3 21 4 22 5 23 6 24 7 6 8 25 9 5 10 26 11 3 12
REMARK SMILES IDX 27 13 2 14 28 15 4 16 7 17 1 18 11 21 12 22 13 23 14 25
REMARK SMILES IDX 20 26 15 27 19 28 16 29 17 30 18 31
REMARK H PARENT 4 19 4 20 11 24
ROOT
ATOM      1  C   UNL     1      24.052  12.369  19.969  1.00  0.00     0.018 A 
ATOM      2  C   UNL     1      23.582  12.614  21.258  1.00  0.00     0.035 A 
ATOM      3  C   UNL     1      22.471  11.983  21.769  1.00  0.00     0.042 A 
ATOM      4  C   UNL     1      21.756  11.079  20.992  1.00  0.00     0.029 A 
ATOM      5  C   UNL     1      22.210  10.821  19.711  1.00  0.00     0.042 A 
ATOM      6  C   UNL     1      23.345  11.438  19.223  1.00  0.00     0.129 A 
ATOM      7  F   UNL     1      23.787  11.144  17.973  1.00  0.00    -0.207 F 
ENDROOT
BRANCH   1   8
ATOM      8  C   UNL     1      25.286  13.080  19.434  1.00  0.00     0.105 C 
ATOM      9  C   UNL     1      26.396  12.169  18.961  1.00  0.00     0.195 C 
ATOM     10  N   UNL     1      25.810  14.059  20.385  1.00  0.00    -0.240 NA
ATOM     11  S   UNL     1      27.041  11.213  20.310  1.00  0.00     0.239 S 
ATOM     12  C   UNL     1      26.573  13.707  21.374  1.00  0.00     0.205 C 
ATOM     13  O   UNL     1      28.422  10.910  19.981  1.00  0.00    -0.206 OA
ATOM     14  N   UNL     1      27.062  12.395  21.561  1.00  0.00    -0.243 N 
ATOM     15  O   UNL     1      26.094  10.245  20.770  1.00  0.00    -0.206 OA
ATOM     16  N   UNL     1      26.998  14.599  22.321  1.00  0.00    -0.369 N 
ATOM     17  C   UNL     1      24.877  13.947  18.240  1.00  0.00     0.044 C 
ATOM     18  C   UNL     1      27.825  11.984  22.756  1.00  0.00     0.167 C 
ATOM     19  H   UNL     1      26.711  15.540  22.276  1.00  0.00     0.159 HD
ATOM     20  H   UNL     1      27.592  14.300  23.048  1.00  0.00     0.159 HD
ENDBRANCH   1   8
BRANCH   3  21
ATOM     21  N   UNL     1      22.102  12.321  23.077  1.00  0.00    -0.321 N 
ATOM     22  C   UNL     1      22.368  11.633  24.248  1.00  0.00     0.274 C 
ATOM     23  O   UNL     1      22.872  10.520  24.311  1.00  0.00    -0.267 OA
ATOM     24  H   UNL     1      21.589  13.156  23.176  1.00  0.00     0.170 HD
BRANCH  22  25
ATOM     25  C   UNL     1      22.028  12.355  25.498  1.00  0.00     0.128 A 
ATOM     26  N   UNL     1      23.038  12.582  26.344  1.00  0.00    -0.248 NA
ATOM     27  C   UNL     1      20.726  12.763  25.728  1.00  0.00     0.037 A 
ATOM     28  C   UNL     1      22.754  13.231  27.486  1.00  0.00     0.151 A 
ATOM     29  C   UNL     1      20.466  13.435  26.910  1.00  0.00     0.043 A 
ATOM     30  C   UNL     1      21.490  13.670  27.807  1.00  0.00     0.141 A 
ATOM     31  F   UNL     1      21.287  14.326  28.962  1.00  0.00    -0.205 F 
ENDBRANCH  22  25
ENDBRANCH   3  21
TORSDOF 3
ENDMDL
MODEL 4
REMARK VINA RESULT:    -8.345      3.567      7.232
REMARK INTER + INTRA:         -10.086
REMARK INTER:                  -9.761
REMARK INTRA:                  -0.325
REMARK UNBOUND:                -0.277
REMARK SMILES CN1C(N)=N[C@](C)(c2cc(NC(=O)c3ccc(F)cn3)ccc2F)CS1(=O)=O
REMARK SMILES IDX 8 1 9 2 10 3 21 4 22 5 23 6 24 7 6 8 25 9 5 10 26 11 3 12
REMARK SMILES IDX 27 13 2 14 28 15 4 16 7 17 1 18 11 21 12 22 13 23 14 25
REMARK SMILES IDX 20 26 15 27 19 28 16 29 17 30 18 31
REMARK H PARENT 4 19 4 20 11 24
ROOT
ATOM      1  C   UNL     1      22.338  11.747  20.787  1.00  0.00     0.018 A 
ATOM      2  C   UNL     1      22.322  12.157  22.120  1.00  0.00     0.035 A 
ATOM      3  C   UNL     1      21.565  11.520  23.077  1.00  0.00     0.042 A 
ATOM      4  C   UNL     1      20.759  10.441  22.734  1.00  0.00     0.029 A 
ATOM      5  C   UNL     1      20.765  10.018  21.417  1.00  0.00     0.042 A 
ATOM      6  C   UNL     1      21.555  10.647  20.474  1.00  0.00     0.129 A 
ATOM      7  F   UNL     1      21.565  10.193  19.194  1.00  0.00    -0.207 F 
ENDROOT
BRANCH   1   8
ATOM      8  C   UNL     1      23.187  12.469  19.753  1.00  0.00     0.105 C 
ATOM      9  C   UNL     1      23.994  11.568  18.844  1.00  0.00     0.195 C 
ATOM     10  N   UNL     1      24.056  13.474  20.363  1.00  0.00    -0.240 NA
ATOM     11  S   UNL     1      25.193  10.649  19.776  1.00  0.00     0.239 S 
ATOM     12  C   UNL     1      25.187  13.155  20.912  1.00  0.00     0.205 C 
ATOM     13  O   UNL     1      26.291  10.364  18.869  1.00  0.00    -0.206 OA
ATOM     14  N   UNL     1      25.740  11.855  20.875  1.00  0.00    -0.243 N 
ATOM     15  O   UNL     1      24.572   9.674  20.618  1.00  0.00    -0.206 OA
ATOM     16  N   UNL     1      25.968  14.072  21.564  1.00  0.00    -0.369 N 
ATOM     17  C   UNL     1      22.270  13.306  18.857  1.00  0.00     0.044 C 
ATOM     18  C   UNL     1      26.964  11.480  21.610  1.00  0.00     0.167 C 
ATOM     19  H   UNL     1      25.668  15.006  21.642  1.00  0.00     0.159 HD
ATOM     20  H   UNL     1      26.830  13.797  21.953  1.00  0.00     0.159 HD
ENDBRANCH   1   8
BRANCH   3  21
ATOM     21  N   UNL     1      21.636  12.034  24.378  1.00  0.00    -0.321 N 
ATOM     22  C   UNL     1      20.665  12.724  25.082  1.00  0.00     0.274 C 
ATOM     23  O   UNL     1      19.603  13.115  24.617  1.00  0.00    -0.267 OA
ATOM     24  H   UNL     1      22.487  11.886  24.852  1.00  0.00     0.170 HD
BRANCH  22  25
ATOM     25  C   UNL     1      20.965  12.952  26.517  1.00  0.00     0.128 A 
ATOM     26  N   UNL     1      20.707  14.176  26.989  1.00  0.00    -0.248 NA
ATOM     27  C   UNL     1      21.474  11.922  27.289  1.00  0.00     0.037 A 
ATOM     28  C   UNL     1      20.974  14.408  28.285  1.00  0.00     0.151 A 
ATOM     29  C   UNL     1      21.734  12.190  28.621  1.00  0.00     0.043 A 
ATOM     30  C   UNL     1      21.487  13.450  29.130  1.00  0.00     0.141 A 
ATOM     31  F   UNL     1      21.714  13.754  30.420  1.00  0.00    -0.205 F 
ENDBRANCH  22  25
ENDBRANCH   3  21
TORSDOF 3
ENDMDL
MODEL 5
REMARK VINA RESULT:    -8.230      3.708      6.931
REMARK INTER + INTRA:          -9.950
REMARK INTER:                 -10.506
REMARK INTRA:                   0.555
REMARK UNBOUND:                -0.277
REMARK SMILES CN1C(N)=N[C@](C)(c2cc(NC(=O)c3ccc(F)cn3)ccc2F)CS1(=O)=O
REMARK SMILES IDX 8 1 9 2 10 3 21 4 22 5 23 6 24 7 6 8 25 9 5 10 26 11 3 12
REMARK SMILES IDX 27 13 2 14 28 15 4 16 7 17 1 18 11 21 12 22 13 23 14 25
REMARK SMILES IDX 20 26 15 27 19 28 16 29 17 30 18 31
REMARK H PARENT 4 19 4 20 11 24
ROOT
ATOM      1  C   UNL     1      24.271  11.995  20.389  1.00  0.00     0.018 A 
ATOM      2  C   UNL     1      23.910  11.853  21.728  1.00  0.00     0.035 A 
ATOM      3  C   UNL     1      22.661  12.196  22.193  1.00  0.00     0.042 A 
ATOM      4  C   UNL     1      21.710  12.726  21.331  1.00  0.00     0.029 A 
ATOM      5  C   UNL     1      22.050  12.870  19.997  1.00  0.00     0.042 A 
ATOM      6  C   UNL     1      23.296  12.492  19.538  1.00  0.00     0.129 A 
ATOM      7  F   UNL     1      23.594  12.616  18.219  1.00  0.00    -0.207 F 
ENDROOT
BRANCH   1   8
ATOM      8  C   UNL     1      25.659  11.603  19.904  1.00  0.00     0.105 C 
ATOM      9  C   UNL     1      26.769  11.802  20.911  1.00  0.00     0.195 C 
ATOM     10  N   UNL     1      26.003  12.255  18.642  1.00  0.00    -0.240 NA
ATOM     11  S   UNL     1      26.955  13.523  21.308  1.00  0.00     0.239 S 
ATOM     12  C   UNL     1      26.450  13.473  18.603  1.00  0.00     0.205 C 
ATOM     13  O   UNL     1      28.342  13.711  21.693  1.00  0.00    -0.206 OA
ATOM     14  N   UNL     1      26.756  14.234  19.753  1.00  0.00    -0.243 N 
ATOM     15  O   UNL     1      25.840  14.015  22.055  1.00  0.00    -0.206 OA
ATOM     16  N   UNL     1      26.693  14.125  17.424  1.00  0.00    -0.369 N 
ATOM     17  C   UNL     1      25.652  10.118  19.532  1.00  0.00     0.044 C 
ATOM     18  C   UNL     1      27.145  15.657  19.696  1.00  0.00     0.167 C 
ATOM     19  H   UNL     1      26.511  13.676  16.567  1.00  0.00     0.159 HD
ATOM     20  H   UNL     1      27.049  15.043  17.433  1.00  0.00     0.159 HD
ENDBRANCH   1   8
BRANCH   3  21
ATOM     21  N   UNL     1      22.428  12.007  23.562  1.00  0.00    -0.321 N 
ATOM     22  C   UNL     1      23.160  12.492  24.631  1.00  0.00     0.274 C 
ATOM     23  O   UNL     1      24.233  13.074  24.544  1.00  0.00    -0.267 OA
ATOM     24  H   UNL     1      21.642  11.460  23.792  1.00  0.00     0.170 HD
BRANCH  22  25
ATOM     25  C   UNL     1      22.539  12.296  25.964  1.00  0.00     0.128 A 
ATOM     26  N   UNL     1      23.081  12.982  26.976  1.00  0.00    -0.248 NA
ATOM     27  C   UNL     1      21.453  11.450  26.103  1.00  0.00     0.037 A 
ATOM     28  C   UNL     1      22.538  12.818  28.194  1.00  0.00     0.151 A 
ATOM     29  C   UNL     1      20.912  11.306  27.369  1.00  0.00     0.043 A 
ATOM     30  C   UNL     1      21.461  11.994  28.433  1.00  0.00     0.141 A 
ATOM     31  F   UNL     1      20.964  11.894  29.678  1.00  0.00    -0.205 F 
ENDBRANCH  22  25
ENDBRANCH   3  21
TORSDOF 3
ENDMDL
MODEL 6
REMARK VINA RESULT:    -8.066      3.677      7.407
REMARK INTER + INTRA:          -9.758
REMARK INTER:                  -9.390
REMARK INTRA:                  -0.368
REMARK UNBOUND:                -0.277
REMARK SMILES CN1C(N)=N[C@](C)(c2cc(NC(=O)c3ccc(F)cn3)ccc2F)CS1(=O)=O
REMARK SMILES IDX 8 1 9 2 10 3 21 4 22 5 23 6 24 7 6 8 25 9 5 10 26 11 3 12
REMARK SMILES IDX 27 13 2 14 28 15 4 16 7 17 1 18 11 21 12 22 13 23 14 25
REMARK SMILES IDX 20 26 15 27 19 28 16 29 17 30 18 31
REMARK H PARENT 4 19 4 20 11 24
ROOT
ATOM      1  C   UNL     1      25.965  12.675  20.382  1.00  0.00     0.018 A 
ATOM      2  C   UNL     1      25.060  12.666  21.442  1.00  0.00     0.035 A 
ATOM      3  C   UNL     1      24.179  11.629  21.650  1.00  0.00     0.042 A 
ATOM      4  C   UNL     1      24.149  10.547  20.779  1.00  0.00     0.029 A 
ATOM      5  C   UNL     1      25.043  10.537  19.723  1.00  0.00     0.042 A 
ATOM      6  C   UNL     1      25.943  11.570  19.545  1.00  0.00     0.129 A 
ATOM      7  F   UNL     1      26.829  11.522  18.518  1.00  0.00    -0.207 F 
ENDROOT
BRANCH   1   8
ATOM      8  C   UNL     1      26.927  13.835  20.181  1.00  0.00     0.105 C 
ATOM      9  C   UNL     1      28.392  13.457  20.163  1.00  0.00     0.195 C 
ATOM     10  N   UNL     1      26.699  14.911  21.144  1.00  0.00    -0.240 NA
ATOM     11  S   UNL     1      28.887  12.794  21.733  1.00  0.00     0.239 S 
ATOM     12  C   UNL     1      27.178  14.862  22.348  1.00  0.00     0.205 C 
ATOM     13  O   UNL     1      30.304  13.077  21.873  1.00  0.00    -0.206 OA
ATOM     14  N   UNL     1      28.049  13.847  22.806  1.00  0.00    -0.243 N 
ATOM     15  O   UNL     1      28.295  11.516  21.976  1.00  0.00    -0.206 OA
ATOM     16  N   UNL     1      26.899  15.819  23.286  1.00  0.00    -0.369 N 
ATOM     17  C   UNL     1      26.621  14.505  18.839  1.00  0.00     0.044 C 
ATOM     18  C   UNL     1      28.486  13.736  24.212  1.00  0.00     0.167 C 
ATOM     19  H   UNL     1      26.301  16.568  23.062  1.00  0.00     0.159 HD
ATOM     20  H   UNL     1      27.295  15.758  24.186  1.00  0.00     0.159 HD
ENDBRANCH   1   8
BRANCH   3  21
ATOM     21  N   UNL     1      23.321  11.745  22.751  1.00  0.00    -0.321 N 
ATOM     22  C   UNL     1      22.052  12.295  22.794  1.00  0.00     0.274 C 
ATOM     23  O   UNL     1      21.515  12.899  21.875  1.00  0.00    -0.267 OA
ATOM     24  H   UNL     1      23.664  11.389  23.602  1.00  0.00     0.170 HD
BRANCH  22  25
ATOM     25  C   UNL     1      21.311  12.079  24.060  1.00  0.00     0.128 A 
ATOM     26  N   UNL     1      21.821  12.660  25.152  1.00  0.00    -0.248 NA
ATOM     27  C   UNL     1      20.154  11.320  24.064  1.00  0.00     0.037 A 
ATOM     28  C   UNL     1      21.169  12.475  26.312  1.00  0.00     0.151 A 
ATOM     29  C   UNL     1      19.502  11.153  25.273  1.00  0.00     0.043 A 
ATOM     30  C   UNL     1      20.015  11.732  26.417  1.00  0.00     0.141 A 
ATOM     31  F   UNL     1      19.412  11.606  27.611  1.00  0.00    -0.205 F 
ENDBRANCH  22  25
ENDBRANCH   3  21
TORSDOF 3
ENDMDL
MODEL 7
REMARK VINA RESULT:    -8.044      4.498      6.414
REMARK INTER + INTRA:          -9.732
REMARK INTER:                 -10.007
REMARK INTRA:                   0.275
REMARK UNBOUND:                -0.277
REMARK SMILES CN1C(N)=N[C@](C)(c2cc(NC(=O)c3ccc(F)cn3)ccc2F)CS1(=O)=O
REMARK SMILES IDX 8 1 9 2 10 3 21 4 22 5 23 6 24 7 6 8 25 9 5 10 26 11 3 12
REMARK SMILES IDX 27 13 2 14 28 15 4 16 7 17 1 18 11 21 12 22 13 23 14 25
REMARK SMILES IDX 20 26 15 27 19 28 16 29 17 30 18 31
REMARK H PARENT 4 19 4 20 11 24
ROOT
ATOM      1  C   UNL     1      19.392  12.187  25.013  1.00  0.00     0.018 A 
ATOM      2  C   UNL     1      20.274  12.617  24.023  1.00  0.00     0.035 A 
ATOM      3  C   UNL     1      20.744  11.776  23.040  1.00  0.00     0.042 A 
ATOM      4  C   UNL     1      20.363  10.440  23.016  1.00  0.00     0.029 A 
ATOM      5  C   UNL     1      19.485   9.997  23.988  1.00  0.00     0.042 A 
ATOM      6  C   UNL     1      18.997  10.859  24.950  1.00  0.00     0.129 A 
ATOM      7  F   UNL     1      18.113  10.406  25.876  1.00  0.00    -0.207 F 
ENDROOT
BRANCH   1   8
ATOM      8  C   UNL     1      18.888  13.141  26.084  1.00  0.00     0.105 C 
ATOM      9  C   UNL     1      19.799  14.312  26.379  1.00  0.00     0.195 C 
ATOM     10  N   UNL     1      18.549  12.445  27.324  1.00  0.00    -0.240 NA
ATOM     11  S   UNL     1      21.347  13.751  27.040  1.00  0.00     0.239 S 
ATOM     12  C   UNL     1      19.455  12.119  28.193  1.00  0.00     0.205 C 
ATOM     13  O   UNL     1      21.855  14.825  27.875  1.00  0.00    -0.206 OA
ATOM     14  N   UNL     1      20.813  12.497  28.092  1.00  0.00    -0.243 N 
ATOM     15  O   UNL     1      22.123  13.064  26.056  1.00  0.00    -0.206 OA
ATOM     16  N   UNL     1      19.164  11.389  29.314  1.00  0.00    -0.369 N 
ATOM     17  C   UNL     1      17.543  13.721  25.637  1.00  0.00     0.044 C 
ATOM     18  C   UNL     1      21.854  12.015  29.020  1.00  0.00     0.167 C 
ATOM     19  H   UNL     1      18.243  11.079  29.474  1.00  0.00     0.159 HD
ATOM     20  H   UNL     1      19.875  11.176  29.961  1.00  0.00     0.159 HD
ENDBRANCH   1   8
BRANCH   3  21
ATOM     21  N   UNL     1      21.628  12.333  22.107  1.00  0.00    -0.321 N 
ATOM     22  C   UNL     1      23.010  12.262  22.087  1.00  0.00     0.274 C 
ATOM     23  O   UNL     1      23.704  11.793  22.979  1.00  0.00    -0.267 OA
ATOM     24  H   UNL     1      21.213  12.840  21.372  1.00  0.00     0.170 HD
BRANCH  22  25
ATOM     25  C   UNL     1      23.652  12.775  20.852  1.00  0.00     0.128 A 
ATOM     26  N   UNL     1      24.952  13.078  20.942  1.00  0.00    -0.248 NA
ATOM     27  C   UNL     1      22.911  12.906  19.691  1.00  0.00     0.037 A 
ATOM     28  C   UNL     1      25.554  13.548  19.837  1.00  0.00     0.151 A 
ATOM     29  C   UNL     1      23.561  13.387  18.568  1.00  0.00     0.043 A 
ATOM     30  C   UNL     1      24.901  13.719  18.638  1.00  0.00     0.141 A 
ATOM     31  F   UNL     1      25.576  14.181  17.572  1.00  0.00    -0.205 F 
ENDBRANCH  22  25
ENDBRANCH   3  21
TORSDOF 3
ENDMDL
MODEL 8
REMARK VINA RESULT:    -7.958      3.841      4.715
REMARK INTER + INTRA:          -9.630
REMARK INTER:                 -10.358
REMARK INTRA:                   0.728
REMARK UNBOUND:                -0.277
REMARK SMILES CN1C(N)=N[C@](C)(c2cc(NC(=O)c3ccc(F)cn3)ccc2F)CS1(=O)=O
REMARK SMILES IDX 8 1 9 2 10 3 21 4 22 5 23 6 24 7 6 8 25 9 5 10 26 11 3 12
REMARK SMILES IDX 27 13 2 14 28 15 4 16 7 17 1 18 11 21 12 22 13 23 14 25
REMARK SMILES IDX 20 26 15 27 19 28 16 29 17 30 18 31
REMARK H PARENT 4 19 4 20 11 24
ROOT
ATOM      1  C   UNL     1      24.110  12.127  20.699  1.00  0.00     0.018 A 
ATOM      2  C   UNL     1      24.710  12.922  21.674  1.00  0.00     0.035 A 
ATOM      3  C   UNL     1      26.038  12.794  22.014  1.00  0.00     0.042 A 
ATOM      4  C   UNL     1      26.832  11.835  21.398  1.00  0.00     0.029 A 
ATOM      5  C   UNL     1      26.254  11.039  20.425  1.00  0.00     0.042 A 
ATOM      6  C   UNL     1      24.929  11.200  20.072  1.00  0.00     0.129 A 
ATOM      7  F   UNL     1      24.394  10.426  19.093  1.00  0.00    -0.207 F 
ENDROOT
BRANCH   1   8
ATOM      8  C   UNL     1      22.641  12.294  20.344  1.00  0.00     0.105 C 
ATOM      9  C   UNL     1      21.814  13.036  21.370  1.00  0.00     0.195 C 
ATOM     10  N   UNL     1      22.007  11.018  20.016  1.00  0.00    -0.240 NA
ATOM     11  S   UNL     1      21.756  12.136  22.899  1.00  0.00     0.239 S 
ATOM     12  C   UNL     1      21.582  10.212  20.939  1.00  0.00     0.205 C 
ATOM     13  O   UNL     1      20.509  12.499  23.546  1.00  0.00    -0.206 OA
ATOM     14  N   UNL     1      21.578  10.525  22.316  1.00  0.00    -0.243 N 
ATOM     15  O   UNL     1      23.027  12.124  23.553  1.00  0.00    -0.206 OA
ATOM     16  N   UNL     1      21.067   8.976  20.650  1.00  0.00    -0.369 N 
ATOM     17  C   UNL     1      22.535  13.076  19.032  1.00  0.00     0.044 C 
ATOM     18  C   UNL     1      21.208   9.552  23.363  1.00  0.00     0.167 C 
ATOM     19  H   UNL     1      21.027   8.667  19.716  1.00  0.00     0.159 HD
ATOM     20  H   UNL     1      20.737   8.398  21.375  1.00  0.00     0.159 HD
ENDBRANCH   1   8
BRANCH   3  21
ATOM     21  N   UNL     1      26.516  13.653  23.012  1.00  0.00    -0.321 N 
ATOM     22  C   UNL     1      26.285  13.596  24.375  1.00  0.00     0.274 C 
ATOM     23  O   UNL     1      25.498  12.836  24.924  1.00  0.00    -0.267 OA
ATOM     24  H   UNL     1      27.090  14.391  22.704  1.00  0.00     0.170 HD
BRANCH  22  25
ATOM     25  C   UNL     1      27.102  14.522  25.195  1.00  0.00     0.128 A 
ATOM     26  N   UNL     1      28.394  14.208  25.334  1.00  0.00    -0.248 NA
ATOM     27  C   UNL     1      26.519  15.644  25.759  1.00  0.00     0.037 A 
ATOM     28  C   UNL     1      29.154  15.030  26.077  1.00  0.00     0.151 A 
ATOM     29  C   UNL     1      27.329  16.475  26.513  1.00  0.00     0.043 A 
ATOM     30  C   UNL     1      28.665  16.166  26.681  1.00  0.00     0.141 A 
ATOM     31  F   UNL     1      29.491  16.947  27.397  1.00  0.00    -0.205 F 
ENDBRANCH  22  25
ENDBRANCH   3  21
TORSDOF 3
ENDMDL
MODEL 9
REMARK VINA RESULT:    -7.815      4.212      5.122
REMARK INTER + INTRA:          -9.463
REMARK INTER:                  -9.039
REMARK INTRA:                  -0.424
REMARK UNBOUND:                -0.277
REMARK SMILES CN1C(N)=N[C@](C)(c2cc(NC(=O)c3ccc(F)cn3)ccc2F)CS1(=O)=O
REMARK SMILES IDX 8 1 9 2 10 3 21 4 22 5 23 6 24 7 6 8 25 9 5 10 26 11 3 12
REMARK SMILES IDX 27 13 2 14 28 15 4 16 7 17 1 18 11 21 12 22 13 23 14 25
REMARK SMILES IDX 20 26 15 27 19 28 16 29 17 30 18 31
REMARK H PARENT 4 19 4 20 11 24
ROOT
ATOM      1  C   UNL     1      26.077  12.057  20.048  1.00  0.00     0.018 A 
ATOM      2  C   UNL     1      26.361  12.618  21.292  1.00  0.00     0.035 A 
ATOM      3  C   UNL     1      27.206  13.695  21.439  1.00  0.00     0.042 A 
ATOM      4  C   UNL     1      27.832  14.253  20.332  1.00  0.00     0.029 A 
ATOM      5  C   UNL     1      27.560  13.711  19.088  1.00  0.00     0.042 A 
ATOM      6  C   UNL     1      26.685  12.652  18.953  1.00  0.00     0.129 A 
ATOM      7  F   UNL     1      26.412  12.157  17.718  1.00  0.00    -0.207 F 
ENDROOT
BRANCH   1   8
ATOM      8  C   UNL     1      25.137  10.869  19.918  1.00  0.00     0.105 C 
ATOM      9  C   UNL     1      23.983  11.067  18.960  1.00  0.00     0.195 C 
ATOM     10  N   UNL     1      24.640  10.418  21.217  1.00  0.00    -0.240 NA
ATOM     11  S   UNL     1      22.912  12.364  19.529  1.00  0.00     0.239 S 
ATOM     12  C   UNL     1      23.644  11.005  21.807  1.00  0.00     0.205 C 
ATOM     13  O   UNL     1      21.590  12.068  19.008  1.00  0.00    -0.206 OA
ATOM     14  N   UNL     1      22.880  12.037  21.219  1.00  0.00    -0.243 N 
ATOM     15  O   UNL     1      23.542  13.645  19.440  1.00  0.00    -0.206 OA
ATOM     16  N   UNL     1      23.226  10.650  23.061  1.00  0.00    -0.369 N 
ATOM     17  C   UNL     1      25.933   9.661  19.417  1.00  0.00     0.044 C 
ATOM     18  C   UNL     1      21.833  12.779  21.948  1.00  0.00     0.167 C 
ATOM     19  H   UNL     1      23.696   9.939  23.554  1.00  0.00     0.159 HD
ATOM     20  H   UNL     1      22.455  11.106  23.471  1.00  0.00     0.159 HD
ENDBRANCH   1   8
BRANCH   3  21
ATOM     21  N   UNL     1      27.408  14.160  22.745  1.00  0.00    -0.321 N 
ATOM     22  C   UNL     1      28.393  13.792  23.643  1.00  0.00     0.274 C 
ATOM     23  O   UNL     1      29.192  12.879  23.477  1.00  0.00    -0.267 OA
ATOM     24  H   UNL     1      26.767  14.837  23.063  1.00  0.00     0.170 HD
BRANCH  22  25
ATOM     25  C   UNL     1      28.470  14.618  24.873  1.00  0.00     0.128 A 
ATOM     26  N   UNL     1      29.647  14.627  25.508  1.00  0.00    -0.248 NA
ATOM     27  C   UNL     1      27.363  15.332  25.296  1.00  0.00     0.037 A 
ATOM     28  C   UNL     1      29.740  15.365  26.626  1.00  0.00     0.151 A 
ATOM     29  C   UNL     1      27.491  16.087  26.448  1.00  0.00     0.043 A 
ATOM     30  C   UNL     1      28.693  16.104  27.129  1.00  0.00     0.141 A 
ATOM     31  F   UNL     1      28.868  16.830  28.247  1.00  0.00    -0.205 F 
ENDBRANCH  22  25
ENDBRANCH   3  21
TORSDOF 3
ENDMDL
MODEL 10
REMARK VINA RESULT:    -7.730      3.698      7.020
REMARK INTER + INTRA:          -9.363
REMARK INTER:                  -9.931
REMARK INTRA:                   0.568
REMARK UNBOUND:                -0.277
REMARK SMILES CN1C(N)=N[C@](C)(c2cc(NC(=O)c3ccc(F)cn3)ccc2F)CS1(=O)=O
REMARK SMILES IDX 8 1 9 2 10 3 21 4 22 5 23 6 24 7 6 8 25 9 5 10 26 11 3 12
REMARK SMILES IDX 27 13 2 14 28 15 4 16 7 17 1 18 11 21 12 22 13 23 14 25
REMARK SMILES IDX 20 26 15 27 19 28 16 29 17 30 18 31
REMARK H PARENT 4 19 4 20 11 24
ROOT
ATOM      1  C   UNL     1      24.433  12.232  20.227  1.00  0.00     0.018 A 
ATOM      2  C   UNL     1      23.949  12.212  21.534  1.00  0.00     0.035 A 
ATOM      3  C   UNL     1      22.663  12.589  21.849  1.00  0.00     0.042 A 
ATOM      4  C   UNL     1      21.797  13.032  20.856  1.00  0.00     0.029 A 
ATOM      5  C   UNL     1      22.260  13.055  19.553  1.00  0.00     0.042 A 
ATOM      6  C   UNL     1      23.542  12.643  19.248  1.00  0.00     0.129 A 
ATOM      7  F   UNL     1      23.962  12.647  17.956  1.00  0.00    -0.207 F 
ENDROOT
BRANCH   1   8
ATOM      8  C   UNL     1      25.858  11.806  19.911  1.00  0.00     0.105 C 
ATOM      9  C   UNL     1      26.786  11.739  21.104  1.00  0.00     0.195 C 
ATOM     10  N   UNL     1      26.454  12.624  18.856  1.00  0.00    -0.240 NA
ATOM     11  S   UNL     1      27.000  13.348  21.822  1.00  0.00     0.239 S 
ATOM     12  C   UNL     1      26.971  13.787  19.106  1.00  0.00     0.205 C 
ATOM     13  O   UNL     1      28.308  13.350  22.453  1.00  0.00    -0.206 OA
ATOM     14  N   UNL     1      27.116  14.320  20.406  1.00  0.00    -0.243 N 
ATOM     15  O   UNL     1      25.803  13.807  22.454  1.00  0.00    -0.206 OA
ATOM     16  N   UNL     1      27.452  14.601  18.115  1.00  0.00    -0.369 N 
ATOM     17  C   UNL     1      25.829  10.408  19.287  1.00  0.00     0.044 C 
ATOM     18  C   UNL     1      27.591  15.694  20.664  1.00  0.00     0.167 C 
ATOM     19  H   UNL     1      27.397  14.316  17.174  1.00  0.00     0.159 HD
ATOM     20  H   UNL     1      27.855  15.470  18.343  1.00  0.00     0.159 HD
ENDBRANCH   1   8
BRANCH   3  21
ATOM     21  N   UNL     1      22.303  12.525  23.201  1.00  0.00    -0.321 N 
ATOM     22  C   UNL     1      21.516  11.580  23.835  1.00  0.00     0.274 C 
ATOM     23  O   UNL     1      20.888  10.694  23.271  1.00  0.00    -0.267 OA
ATOM     24  H   UNL     1      22.655  13.245  23.773  1.00  0.00     0.170 HD
BRANCH  22  25
ATOM     25  C   UNL     1      21.492  11.666  25.315  1.00  0.00     0.128 A 
ATOM     26  N   UNL     1      22.243  12.626  25.866  1.00  0.00    -0.248 NA
ATOM     27  C   UNL     1      20.711  10.788  26.046  1.00  0.00     0.037 A 
ATOM     28  C   UNL     1      22.240  12.721  27.206  1.00  0.00     0.151 A 
ATOM     29  C   UNL     1      20.724  10.915  27.424  1.00  0.00     0.043 A 
ATOM     30  C   UNL     1      21.501  11.890  28.017  1.00  0.00     0.141 A 
ATOM     31  F   UNL     1      21.539  12.057  29.350  1.00  0.00    -0.205 F 
ENDBRANCH  22  25
ENDBRANCH   3  21
TORSDOF 3
ENDMDL
MODEL 11
REMARK VINA RESULT:    -7.682      5.488      8.400
REMARK INTER + INTRA:          -9.306
REMARK INTER:                  -9.041
REMARK INTRA:                  -0.265
REMARK UNBOUND:                -0.277
REMARK SMILES CN1C(N)=N[C@](C)(c2cc(NC(=O)c3ccc(F)cn3)ccc2F)CS1(=O)=O
REMARK SMILES IDX 8 1 9 2 10 3 21 4 22 5 23 6 24 7 6 8 25 9 5 10 26 11 3 12
REMARK SMILES IDX 27 13 2 14 28 15 4 16 7 17 1 18 11 21 12 22 13 23 14 25
REMARK SMILES IDX 20 26 15 27 19 28 16 29 17 30 18 31
REMARK H PARENT 4 19 4 20 11 24
ROOT
ATOM      1  C   UNL     1      20.003  14.330  26.815  1.00  0.00     0.018 A 
ATOM      2  C   UNL     1      19.998  13.654  25.596  1.00  0.00     0.035 A 
ATOM      3  C   UNL     1      20.878  12.633  25.317  1.00  0.00     0.042 A 
ATOM      4  C   UNL     1      21.832  12.251  26.251  1.00  0.00     0.029 A 
ATOM      5  C   UNL     1      21.850  12.909  27.469  1.00  0.00     0.042 A 
ATOM      6  C   UNL     1      20.940  13.910  27.747  1.00  0.00     0.129 A 
ATOM      7  F   UNL     1      20.959  14.519  28.960  1.00  0.00    -0.207 F 
ENDROOT
BRANCH   1   8
ATOM      8  C   UNL     1      19.015  15.452  27.095  1.00  0.00     0.105 C 
ATOM      9  C   UNL     1      18.073  15.202  28.252  1.00  0.00     0.195 C 
ATOM     10  N   UNL     1      18.258  15.826  25.902  1.00  0.00    -0.240 NA
ATOM     11  S   UNL     1      17.017  13.816  27.913  1.00  0.00     0.239 S 
ATOM     12  C   UNL     1      17.219  15.153  25.516  1.00  0.00     0.205 C 
ATOM     13  O   UNL     1      15.793  14.035  28.662  1.00  0.00    -0.206 OA
ATOM     14  N   UNL     1      16.654  14.088  26.252  1.00  0.00    -0.243 N 
ATOM     15  O   UNL     1      17.747  12.587  27.906  1.00  0.00    -0.206 OA
ATOM     16  N   UNL     1      16.554  15.439  24.353  1.00  0.00    -0.369 N 
ATOM     17  C   UNL     1      19.797  16.728  27.420  1.00  0.00     0.044 C 
ATOM     18  C   UNL     1      15.549  13.253  25.740  1.00  0.00     0.167 C 
ATOM     19  H   UNL     1      16.872  16.166  23.771  1.00  0.00     0.159 HD
ATOM     20  H   UNL     1      15.757  14.918  24.101  1.00  0.00     0.159 HD
ENDBRANCH   1   8
BRANCH   3  21
ATOM     21  N   UNL     1      20.768  12.038  24.053  1.00  0.00    -0.321 N 
ATOM     22  C   UNL     1      21.690  12.043  23.021  1.00  0.00     0.274 C 
ATOM     23  O   UNL     1      22.726  12.695  23.005  1.00  0.00    -0.267 OA
ATOM     24  H   UNL     1      19.928  11.555  23.877  1.00  0.00     0.170 HD
BRANCH  22  25
ATOM     25  C   UNL     1      21.371  11.145  21.884  1.00  0.00     0.128 A 
ATOM     26  N   UNL     1      20.674  10.043  22.176  1.00  0.00    -0.248 NA
ATOM     27  C   UNL     1      21.785  11.477  20.605  1.00  0.00     0.037 A 
ATOM     28  C   UNL     1      20.377   9.213  21.162  1.00  0.00     0.151 A 
ATOM     29  C   UNL     1      21.459  10.605  19.582  1.00  0.00     0.043 A 
ATOM     30  C   UNL     1      20.749   9.453  19.859  1.00  0.00     0.141 A 
ATOM     31  F   UNL     1      20.402   8.581  18.897  1.00  0.00    -0.205 F 
ENDBRANCH  22  25
ENDBRANCH   3  21
TORSDOF 3
ENDMDL
MODEL 12
REMARK VINA RESULT:    -7.520      3.580      6.669
REMARK INTER + INTRA:          -9.116
REMARK INTER:                  -9.137
REMARK INTRA:                   0.021
REMARK UNBOUND:                -0.277
REMARK SMILES CN1C(N)=N[C@](C)(c2cc(NC(=O)c3ccc(F)cn3)ccc2F)CS1(=O)=O
REMARK SMILES IDX 8 1 9 2 10 3 21 4 22 5 23 6 24 7 6 8 25 9 5 10 26 11 3 12
REMARK SMILES IDX 27 13 2 14 28 15 4 16 7 17 1 18 11 21 12 22 13 23 14 25
REMARK SMILES IDX 20 26 15 27 19 28 16 29 17 30 18 31
REMARK H PARENT 4 19 4 20 11 24
ROOT
ATOM      1  C   UNL     1      26.307  12.244  21.484  1.00  0.00     0.018 A 
ATOM      2  C   UNL     1      25.434  12.231  22.571  1.00  0.00     0.035 A 
ATOM      3  C   UNL     1      25.450  13.208  23.540  1.00  0.00     0.042 A 
ATOM      4  C   UNL     1      26.370  14.247  23.476  1.00  0.00     0.029 A 
ATOM      5  C   UNL     1      27.242  14.279  22.402  1.00  0.00     0.042 A 
ATOM      6  C   UNL     1      27.193  13.309  21.420  1.00  0.00     0.129 A 
ATOM      7  F   UNL     1      28.040  13.378  20.361  1.00  0.00    -0.207 F 
ENDROOT
BRANCH   1   8
ATOM      8  C   UNL     1      26.262  11.151  20.428  1.00  0.00     0.105 C 
ATOM      9  C   UNL     1      25.925  11.623  19.031  1.00  0.00     0.195 C 
ATOM     10  N   UNL     1      25.379  10.051  20.813  1.00  0.00    -0.240 NA
ATOM     11  S   UNL     1      24.284  12.298  18.977  1.00  0.00     0.239 S 
ATOM     12  C   UNL     1      24.095  10.118  20.645  1.00  0.00     0.205 C 
ATOM     13  O   UNL     1      23.802  12.105  17.621  1.00  0.00    -0.206 OA
ATOM     14  N   UNL     1      23.443  11.180  19.981  1.00  0.00    -0.243 N 
ATOM     15  O   UNL     1      24.198  13.533  19.693  1.00  0.00    -0.206 OA
ATOM     16  N   UNL     1      23.249   9.134  21.082  1.00  0.00    -0.369 N 
ATOM     17  C   UNL     1      27.636  10.478  20.354  1.00  0.00     0.044 C 
ATOM     18  C   UNL     1      21.974  11.303  19.907  1.00  0.00     0.167 C 
ATOM     19  H   UNL     1      23.609   8.350  21.557  1.00  0.00     0.159 HD
ATOM     20  H   UNL     1      22.280   9.209  20.920  1.00  0.00     0.159 HD
ENDBRANCH   1   8
BRANCH   3  21
ATOM     21  N   UNL     1      24.522  13.075  24.581  1.00  0.00    -0.321 N 
ATOM     22  C   UNL     1      23.277  12.474  24.547  1.00  0.00     0.274 C 
ATOM     23  O   UNL     1      22.721  12.062  23.538  1.00  0.00    -0.267 OA
ATOM     24  H   UNL     1      24.791  13.459  25.447  1.00  0.00     0.170 HD
BRANCH  22  25
ATOM     25  C   UNL     1      22.619  12.306  25.866  1.00  0.00     0.128 A 
ATOM     26  N   UNL     1      23.155  12.983  26.886  1.00  0.00    -0.248 NA
ATOM     27  C   UNL     1      21.507  11.490  25.984  1.00  0.00     0.037 A 
ATOM     28  C   UNL     1      22.578  12.843  28.092  1.00  0.00     0.151 A 
ATOM     29  C   UNL     1      20.932  11.371  27.237  1.00  0.00     0.043 A 
ATOM     30  C   UNL     1      21.474  12.051  28.310  1.00  0.00     0.141 A 
ATOM     31  F   UNL     1      20.945  11.974  29.543  1.00  0.00    -0.205 F 
ENDBRANCH  22  25
ENDBRANCH   3  21
TORSDOF 3
ENDMDL
MODEL 13
REMARK VINA RESULT:    -7.477      3.557      7.725
REMARK INTER + INTRA:          -9.066
REMARK INTER:                  -8.683
REMARK INTRA:                  -0.383
REMARK UNBOUND:                -0.277
REMARK SMILES CN1C(N)=N[C@](C)(c2cc(NC(=O)c3ccc(F)cn3)ccc2F)CS1(=O)=O
REMARK SMILES IDX 8 1 9 2 10 3 21 4 22 5 23 6 24 7 6 8 25 9 5 10 26 11 3 12
REMARK SMILES IDX 27 13 2 14 28 15 4 16 7 17 1 18 11 21 12 22 13 23 14 25
REMARK SMILES IDX 20 26 15 27 19 28 16 29 17 30 18 31
REMARK H PARENT 4 19 4 20 11 24
ROOT
ATOM      1  C   UNL     1      26.212  12.311  21.784  1.00  0.00     0.018 A 
ATOM      2  C   UNL     1      24.888  12.245  22.214  1.00  0.00     0.035 A 
ATOM      3  C   UNL     1      24.473  12.795  23.406  1.00  0.00     0.042 A 
ATOM      4  C   UNL     1      25.383  13.426  24.244  1.00  0.00     0.029 A 
ATOM      5  C   UNL     1      26.701  13.504  23.832  1.00  0.00     0.042 A 
ATOM      6  C   UNL     1      27.097  12.976  22.619  1.00  0.00     0.129 A 
ATOM      7  F   UNL     1      28.392  13.091  22.224  1.00  0.00    -0.207 F 
ENDROOT
BRANCH   1   8
ATOM      8  C   UNL     1      26.640  11.696  20.461  1.00  0.00     0.105 C 
ATOM      9  C   UNL     1      27.320  12.647  19.502  1.00  0.00     0.195 C 
ATOM     10  N   UNL     1      25.534  11.013  19.790  1.00  0.00    -0.240 NA
ATOM     11  S   UNL     1      26.207  13.937  19.002  1.00  0.00     0.239 S 
ATOM     12  C   UNL     1      24.660  11.662  19.084  1.00  0.00     0.205 C 
ATOM     13  O   UNL     1      26.637  14.367  17.684  1.00  0.00    -0.206 OA
ATOM     14  N   UNL     1      24.751  13.043  18.797  1.00  0.00    -0.243 N 
ATOM     15  O   UNL     1      25.913  14.827  20.082  1.00  0.00    -0.206 OA
ATOM     16  N   UNL     1      23.572  11.049  18.525  1.00  0.00    -0.369 N 
ATOM     17  C   UNL     1      27.626  10.558  20.740  1.00  0.00     0.044 C 
ATOM     18  C   UNL     1      23.687  13.791  18.099  1.00  0.00     0.167 C 
ATOM     19  H   UNL     1      23.422  10.086  18.668  1.00  0.00     0.159 HD
ATOM     20  H   UNL     1      22.939  11.570  17.979  1.00  0.00     0.159 HD
ENDBRANCH   1   8
BRANCH   3  21
ATOM     21  N   UNL     1      23.115  12.657  23.721  1.00  0.00    -0.321 N 
ATOM     22  C   UNL     1      22.481  11.590  24.332  1.00  0.00     0.274 C 
ATOM     23  O   UNL     1      23.003  10.512  24.586  1.00  0.00    -0.267 OA
ATOM     24  H   UNL     1      22.538  13.417  23.477  1.00  0.00     0.170 HD
BRANCH  22  25
ATOM     25  C   UNL     1      21.070  11.830  24.722  1.00  0.00     0.128 A 
ATOM     26  N   UNL     1      20.782  13.052  25.183  1.00  0.00    -0.248 NA
ATOM     27  C   UNL     1      20.135  10.819  24.590  1.00  0.00     0.037 A 
ATOM     28  C   UNL     1      19.512  13.292  25.547  1.00  0.00     0.151 A 
ATOM     29  C   UNL     1      18.833  11.098  24.967  1.00  0.00     0.043 A 
ATOM     30  C   UNL     1      18.513  12.349  25.458  1.00  0.00     0.141 A 
ATOM     31  F   UNL     1      17.261  12.669  25.827  1.00  0.00    -0.205 F 
ENDBRANCH  22  25
ENDBRANCH   3  21
TORSDOF 3
ENDMDL
MODEL 14
REMARK VINA RESULT:    -7.475      3.761      7.630
REMARK INTER + INTRA:          -9.063
REMARK INTER:                  -8.846
REMARK INTRA:                  -0.217
REMARK UNBOUND:                -0.277
REMARK SMILES CN1C(N)=N[C@](C)(c2cc(NC(=O)c3ccc(F)cn3)ccc2F)CS1(=O)=O
REMARK SMILES IDX 8 1 9 2 10 3 21 4 22 5 23 6 24 7 6 8 25 9 5 10 26 11 3 12
REMARK SMILES IDX 27 13 2 14 28 15 4 16 7 17 1 18 11 21 12 22 13 23 14 25
REMARK SMILES IDX 20 26 15 27 19 28 16 29 17 30 18 31
REMARK H PARENT 4 19 4 20 11 24
ROOT
ATOM      1  C   UNL     1      29.021  12.789  20.851  1.00  0.00     0.018 A 
ATOM      2  C   UNL     1      27.658  12.535  20.997  1.00  0.00     0.035 A 
ATOM      3  C   UNL     1      27.148  11.257  21.029  1.00  0.00     0.042 A 
ATOM      4  C   UNL     1      27.989  10.159  20.891  1.00  0.00     0.029 A 
ATOM      5  C   UNL     1      29.345  10.393  20.748  1.00  0.00     0.042 A 
ATOM      6  C   UNL     1      29.847  11.680  20.750  1.00  0.00     0.129 A 
ATOM      7  F   UNL     1      31.185  11.881  20.638  1.00  0.00    -0.207 F 
ENDROOT
BRANCH   1   8
ATOM      8  C   UNL     1      29.555  14.213  20.822  1.00  0.00     0.105 C 
ATOM      9  C   UNL     1      30.443  14.588  21.988  1.00  0.00     0.195 C 
ATOM     10  N   UNL     1      28.485  15.198  20.670  1.00  0.00    -0.240 NA
ATOM     11  S   UNL     1      29.534  14.532  23.512  1.00  0.00     0.239 S 
ATOM     12  C   UNL     1      27.777  15.597  21.681  1.00  0.00     0.205 C 
ATOM     13  O   UNL     1      30.170  15.480  24.409  1.00  0.00    -0.206 OA
ATOM     14  N   UNL     1      28.037  15.224  23.018  1.00  0.00    -0.243 N 
ATOM     15  O   UNL     1      29.189  13.192  23.872  1.00  0.00    -0.206 OA
ATOM     16  N   UNL     1      26.716  16.451  21.538  1.00  0.00    -0.369 N 
ATOM     17  C   UNL     1      30.383  14.405  19.549  1.00  0.00     0.044 C 
ATOM     18  C   UNL     1      27.149  15.586  24.141  1.00  0.00     0.167 C 
ATOM     19  H   UNL     1      26.457  16.768  20.643  1.00  0.00     0.159 HD
ATOM     20  H   UNL     1      26.213  16.747  22.330  1.00  0.00     0.159 HD
ENDBRANCH   1   8
BRANCH   3  21
ATOM     21  N   UNL     1      25.760  11.139  21.178  1.00  0.00    -0.321 N 
ATOM     22  C   UNL     1      24.812  10.879  20.204  1.00  0.00     0.274 C 
ATOM     23  O   UNL     1      25.032  10.835  19.001  1.00  0.00    -0.267 OA
ATOM     24  H   UNL     1      25.415  11.256  22.093  1.00  0.00     0.170 HD
BRANCH  22  25
ATOM     25  C   UNL     1      23.445  10.604  20.709  1.00  0.00     0.128 A 
ATOM     26  N   UNL     1      23.342  10.294  22.005  1.00  0.00    -0.248 NA
ATOM     27  C   UNL     1      22.362  10.686  19.850  1.00  0.00     0.037 A 
ATOM     28  C   UNL     1      22.114  10.037  22.484  1.00  0.00     0.151 A 
ATOM     29  C   UNL     1      21.109  10.422  20.375  1.00  0.00     0.043 A 
ATOM     30  C   UNL     1      20.978  10.087  21.709  1.00  0.00     0.141 A 
ATOM     31  F   UNL     1      19.781   9.831  22.264  1.00  0.00    -0.205 F 
ENDBRANCH  22  25
ENDBRANCH   3  21
TORSDOF 3
ENDMDL
MODEL 15
REMARK VINA RESULT:    -7.474      4.443      6.388
REMARK INTER + INTRA:          -9.062
REMARK INTER:                  -9.390
REMARK INTRA:                   0.328
REMARK UNBOUND:                -0.277
REMARK SMILES CN1C(N)=N[C@](C)(c2cc(NC(=O)c3ccc(F)cn3)ccc2F)CS1(=O)=O
REMARK SMILES IDX 8 1 9 2 10 3 21 4 22 5 23 6 24 7 6 8 25 9 5 10 26 11 3 12
REMARK SMILES IDX 27 13 2 14 28 15 4 16 7 17 1 18 11 21 12 22 13 23 14 25
REMARK SMILES IDX 20 26 15 27 19 28 16 29 17 30 18 31
REMARK H PARENT 4 19 4 20 11 24
ROOT
ATOM      1  C   UNL     1      19.253  12.728  25.241  1.00  0.00     0.018 A 
ATOM      2  C   UNL     1      20.459  12.589  24.554  1.00  0.00     0.035 A 
ATOM      3  C   UNL     1      20.807  11.426  23.906  1.00  0.00     0.042 A 
ATOM      4  C   UNL     1      19.962  10.324  23.935  1.00  0.00     0.029 A 
ATOM      5  C   UNL     1      18.760  10.444  24.610  1.00  0.00     0.042 A 
ATOM      6  C   UNL     1      18.409  11.628  25.228  1.00  0.00     0.129 A 
ATOM      7  F   UNL     1      17.211  11.729  25.858  1.00  0.00    -0.207 F 
ENDROOT
BRANCH   1   8
ATOM      8  C   UNL     1      18.895  14.027  25.945  1.00  0.00     0.105 C 
ATOM      9  C   UNL     1      20.067  14.781  26.534  1.00  0.00     0.195 C 
ATOM     10  N   UNL     1      17.861  13.835  26.960  1.00  0.00    -0.240 NA
ATOM     11  S   UNL     1      20.841  13.831  27.818  1.00  0.00     0.239 S 
ATOM     12  C   UNL     1      18.144  13.395  28.147  1.00  0.00     0.205 C 
ATOM     13  O   UNL     1      21.447  14.785  28.730  1.00  0.00    -0.206 OA
ATOM     14  N   UNL     1      19.461  13.175  28.610  1.00  0.00    -0.243 N 
ATOM     15  O   UNL     1      21.513  12.683  27.293  1.00  0.00    -0.206 OA
ATOM     16  N   UNL     1      17.176  13.126  29.077  1.00  0.00    -0.369 N 
ATOM     17  C   UNL     1      18.219  14.964  24.939  1.00  0.00     0.044 C 
ATOM     18  C   UNL     1      19.762  12.558  29.917  1.00  0.00     0.167 C 
ATOM     19  H   UNL     1      16.226  13.249  28.848  1.00  0.00     0.159 HD
ATOM     20  H   UNL     1      17.430  12.811  29.975  1.00  0.00     0.159 HD
ENDBRANCH   1   8
BRANCH   3  21
ATOM     21  N   UNL     1      22.048  11.418  23.255  1.00  0.00    -0.321 N 
ATOM     22  C   UNL     1      22.379  11.977  22.034  1.00  0.00     0.274 C 
ATOM     23  O   UNL     1      21.583  12.473  21.247  1.00  0.00    -0.267 OA
ATOM     24  H   UNL     1      22.778  10.956  23.728  1.00  0.00     0.170 HD
BRANCH  22  25
ATOM     25  C   UNL     1      23.827  11.985  21.712  1.00  0.00     0.128 A 
ATOM     26  N   UNL     1      24.246  11.057  20.845  1.00  0.00    -0.248 NA
ATOM     27  C   UNL     1      24.659  12.926  22.293  1.00  0.00     0.037 A 
ATOM     28  C   UNL     1      25.555  11.042  20.541  1.00  0.00     0.151 A 
ATOM     29  C   UNL     1      26.001  12.888  21.956  1.00  0.00     0.043 A 
ATOM     30  C   UNL     1      26.461  11.931  21.072  1.00  0.00     0.141 A 
ATOM     31  F   UNL     1      27.753  11.861  20.707  1.00  0.00    -0.205 F 
ENDBRANCH  22  25
ENDBRANCH   3  21
TORSDOF 3
ENDMDL
MODEL 16
REMARK VINA RESULT:    -7.468      4.144      5.822
REMARK INTER + INTRA:          -9.055
REMARK INTER:                  -8.872
REMARK INTRA:                  -0.183
REMARK UNBOUND:                -0.277
REMARK SMILES CN1C(N)=N[C@](C)(c2cc(NC(=O)c3ccc(F)cn3)ccc2F)CS1(=O)=O
REMARK SMILES IDX 8 1 9 2 10 3 21 4 22 5 23 6 24 7 6 8 25 9 5 10 26 11 3 12
REMARK SMILES IDX 27 13 2 14 28 15 4 16 7 17 1 18 11 21 12 22 13 23 14 25
REMARK SMILES IDX 20 26 15 27 19 28 16 29 17 30 18 31
REMARK H PARENT 4 19 4 20 11 24
ROOT
ATOM      1  C   UNL     1      23.246  12.271  21.840  1.00  0.00     0.018 A 
ATOM      2  C   UNL     1      24.171  12.881  22.685  1.00  0.00     0.035 A 
ATOM      3  C   UNL     1      24.153  12.702  24.049  1.00  0.00     0.042 A 
ATOM      4  C   UNL     1      23.178  11.908  24.641  1.00  0.00     0.029 A 
ATOM      5  C   UNL     1      22.253  11.292  23.817  1.00  0.00     0.042 A 
ATOM      6  C   UNL     1      22.303  11.455  22.447  1.00  0.00     0.129 A 
ATOM      7  F   UNL     1      21.402  10.816  21.659  1.00  0.00    -0.207 F 
ENDROOT
BRANCH   1   8
ATOM      8  C   UNL     1      23.294  12.487  20.335  1.00  0.00     0.105 C 
ATOM      9  C   UNL     1      23.461  11.229  19.512  1.00  0.00     0.195 C 
ATOM     10  N   UNL     1      24.304  13.473  19.955  1.00  0.00    -0.240 NA
ATOM     11  S   UNL     1      25.022  10.457  19.856  1.00  0.00     0.239 S 
ATOM     12  C   UNL     1      25.557  13.156  19.842  1.00  0.00     0.205 C 
ATOM     13  O   UNL     1      25.396   9.728  18.658  1.00  0.00    -0.206 OA
ATOM     14  N   UNL     1      26.048  11.836  19.955  1.00  0.00    -0.243 N 
ATOM     15  O   UNL     1      25.060   9.908  21.175  1.00  0.00    -0.206 OA
ATOM     16  N   UNL     1      26.525  14.087  19.573  1.00  0.00    -0.369 N 
ATOM     17  C   UNL     1      21.986  13.145  19.888  1.00  0.00     0.044 C 
ATOM     18  C   UNL     1      27.487  11.509  19.948  1.00  0.00     0.167 C 
ATOM     19  H   UNL     1      26.281  15.036  19.476  1.00  0.00     0.159 HD
ATOM     20  H   UNL     1      27.464  13.808  19.476  1.00  0.00     0.159 HD
ENDBRANCH   1   8
BRANCH   3  21
ATOM     21  N   UNL     1      25.138  13.374  24.784  1.00  0.00    -0.321 N 
ATOM     22  C   UNL     1      26.488  13.489  24.504  1.00  0.00     0.274 C 
ATOM     23  O   UNL     1      27.074  12.894  23.609  1.00  0.00    -0.267 OA
ATOM     24  H   UNL     1      24.829  13.823  25.605  1.00  0.00     0.170 HD
BRANCH  22  25
ATOM     25  C   UNL     1      27.233  14.443  25.360  1.00  0.00     0.128 A 
ATOM     26  N   UNL     1      28.515  14.148  25.600  1.00  0.00    -0.248 NA
ATOM     27  C   UNL     1      26.599  15.571  25.853  1.00  0.00     0.037 A 
ATOM     28  C   UNL     1      29.210  14.996  26.376  1.00  0.00     0.151 A 
ATOM     29  C   UNL     1      27.343  16.428  26.644  1.00  0.00     0.043 A 
ATOM     30  C   UNL     1      28.666  16.139  26.917  1.00  0.00     0.141 A 
ATOM     31  F   UNL     1      29.430  16.947  27.672  1.00  0.00    -0.205 F 
ENDBRANCH  22  25
ENDBRANCH   3  21
TORSDOF 3
ENDMDL
MODEL 17
REMARK VINA RESULT:    -7.420      3.723      7.577
REMARK INTER + INTRA:          -8.998
REMARK INTER:                  -8.933
REMARK INTRA:                  -0.065
REMARK UNBOUND:                -0.277
REMARK SMILES CN1C(N)=N[C@](C)(c2cc(NC(=O)c3ccc(F)cn3)ccc2F)CS1(=O)=O
REMARK SMILES IDX 8 1 9 2 10 3 21 4 22 5 23 6 24 7 6 8 25 9 5 10 26 11 3 12
REMARK SMILES IDX 27 13 2 14 28 15 4 16 7 17 1 18 11 21 12 22 13 23 14 25
REMARK SMILES IDX 20 26 15 27 19 28 16 29 17 30 18 31
REMARK H PARENT 4 19 4 20 11 24
ROOT
ATOM      1  C   UNL     1      28.257  13.195  22.574  1.00  0.00     0.018 A 
ATOM      2  C   UNL     1      27.025  12.862  23.134  1.00  0.00     0.035 A 
ATOM      3  C   UNL     1      26.614  13.350  24.353  1.00  0.00     0.042 A 
ATOM      4  C   UNL     1      27.441  14.189  25.090  1.00  0.00     0.029 A 
ATOM      5  C   UNL     1      28.667  14.533  24.548  1.00  0.00     0.042 A 
ATOM      6  C   UNL     1      29.052  14.061  23.308  1.00  0.00     0.129 A 
ATOM      7  F   UNL     1      30.248  14.438  22.786  1.00  0.00    -0.207 F 
ENDROOT
BRANCH   1   8
ATOM      8  C   UNL     1      28.681  12.642  21.222  1.00  0.00     0.105 C 
ATOM      9  C   UNL     1      28.991  13.685  20.172  1.00  0.00     0.195 C 
ATOM     10  N   UNL     1      27.718  11.674  20.699  1.00  0.00    -0.240 NA
ATOM     11  S   UNL     1      27.542  14.631  19.779  1.00  0.00     0.239 S 
ATOM     12  C   UNL     1      26.638  12.050  20.086  1.00  0.00     0.205 C 
ATOM     13  O   UNL     1      27.704  15.090  18.412  1.00  0.00    -0.206 OA
ATOM     14  N   UNL     1      26.345  13.394  19.763  1.00  0.00    -0.243 N 
ATOM     15  O   UNL     1      27.150  15.472  20.868  1.00  0.00    -0.206 OA
ATOM     16  N   UNL     1      25.686  11.159  19.670  1.00  0.00    -0.369 N 
ATOM     17  C   UNL     1      29.947  11.801  21.407  1.00  0.00     0.044 C 
ATOM     18  C   UNL     1      25.058  13.819  19.179  1.00  0.00     0.167 C 
ATOM     19  H   UNL     1      25.800  10.197  19.849  1.00  0.00     0.159 HD
ATOM     20  H   UNL     1      24.887  11.479  19.192  1.00  0.00     0.159 HD
ENDBRANCH   1   8
BRANCH   3  21
ATOM     21  N   UNL     1      25.354  12.935  24.804  1.00  0.00    -0.321 N 
ATOM     22  C   UNL     1      24.223  12.665  24.055  1.00  0.00     0.274 C 
ATOM     23  O   UNL     1      24.106  12.875  22.854  1.00  0.00    -0.267 OA
ATOM     24  H   UNL     1      25.262  12.821  25.777  1.00  0.00     0.170 HD
BRANCH  22  25
ATOM     25  C   UNL     1      23.103  12.041  24.801  1.00  0.00     0.128 A 
ATOM     26  N   UNL     1      22.836  12.553  26.007  1.00  0.00    -0.248 NA
ATOM     27  C   UNL     1      22.394  10.995  24.236  1.00  0.00     0.037 A 
ATOM     28  C   UNL     1      21.829  12.002  26.704  1.00  0.00     0.151 A 
ATOM     29  C   UNL     1      21.359  10.452  24.976  1.00  0.00     0.043 A 
ATOM     30  C   UNL     1      21.071  10.955  26.230  1.00  0.00     0.141 A 
ATOM     31  F   UNL     1      20.069  10.466  26.981  1.00  0.00    -0.205 F 
ENDBRANCH  22  25
ENDBRANCH   3  21
TORSDOF 3
ENDMDL
MODEL 18
REMARK VINA RESULT:    -7.412      4.488      7.761
REMARK INTER + INTRA:          -8.989
REMARK INTER:                  -8.597
REMARK INTRA:                  -0.392
REMARK UNBOUND:                -0.277
REMARK SMILES CN1C(N)=N[C@](C)(c2cc(NC(=O)c3ccc(F)cn3)ccc2F)CS1(=O)=O
REMARK SMILES IDX 8 1 9 2 10 3 21 4 22 5 23 6 24 7 6 8 25 9 5 10 26 11 3 12
REMARK SMILES IDX 27 13 2 14 28 15 4 16 7 17 1 18 11 21 12 22 13 23 14 25
REMARK SMILES IDX 20 26 15 27 19 28 16 29 17 30 18 31
REMARK H PARENT 4 19 4 20 11 24
ROOT
ATOM      1  C   UNL     1      27.068  14.130  21.313  1.00  0.00     0.018 A 
ATOM      2  C   UNL     1      25.954  13.806  22.088  1.00  0.00     0.035 A 
ATOM      3  C   UNL     1      25.279  12.615  21.944  1.00  0.00     0.042 A 
ATOM      4  C   UNL     1      25.680  11.690  20.988  1.00  0.00     0.029 A 
ATOM      5  C   UNL     1      26.785  11.994  20.213  1.00  0.00     0.042 A 
ATOM      6  C   UNL     1      27.472  13.178  20.390  1.00  0.00     0.129 A 
ATOM      7  F   UNL     1      28.572  13.438  19.637  1.00  0.00    -0.207 F 
ENDROOT
BRANCH   1   8
ATOM      8  C   UNL     1      27.795  15.453  21.499  1.00  0.00     0.105 C 
ATOM      9  C   UNL     1      29.278  15.336  21.769  1.00  0.00     0.195 C 
ATOM     10  N   UNL     1      27.163  16.288  22.518  1.00  0.00    -0.240 NA
ATOM     11  S   UNL     1      29.571  14.500  23.308  1.00  0.00     0.239 S 
ATOM     12  C   UNL     1      27.390  16.109  23.783  1.00  0.00     0.205 C 
ATOM     13  O   UNL     1      30.843  14.988  23.809  1.00  0.00    -0.206 OA
ATOM     14  N   UNL     1      28.337  15.191  24.289  1.00  0.00    -0.243 N 
ATOM     15  O   UNL     1      29.214  13.118  23.233  1.00  0.00    -0.206 OA
ATOM     16  N   UNL     1      26.738  16.825  24.751  1.00  0.00    -0.369 N 
ATOM     17  C   UNL     1      27.636  16.287  20.225  1.00  0.00     0.044 C 
ATOM     18  C   UNL     1      28.495  14.910  25.730  1.00  0.00     0.167 C 
ATOM     19  H   UNL     1      26.058  17.491  24.497  1.00  0.00     0.159 HD
ATOM     20  H   UNL     1      26.949  16.675  25.701  1.00  0.00     0.159 HD
ENDBRANCH   1   8
BRANCH   3  21
ATOM     21  N   UNL     1      24.175  12.415  22.782  1.00  0.00    -0.321 N 
ATOM     22  C   UNL     1      22.831  12.518  22.469  1.00  0.00     0.274 C 
ATOM     23  O   UNL     1      22.385  12.937  21.409  1.00  0.00    -0.267 OA
ATOM     24  H   UNL     1      24.381  12.169  23.713  1.00  0.00     0.170 HD
BRANCH  22  25
ATOM     25  C   UNL     1      21.898  12.038  23.518  1.00  0.00     0.128 A 
ATOM     26  N   UNL     1      22.217  12.343  24.780  1.00  0.00    -0.248 NA
ATOM     27  C   UNL     1      20.765  11.327  23.162  1.00  0.00     0.037 A 
ATOM     28  C   UNL     1      21.389  11.916  25.747  1.00  0.00     0.151 A 
ATOM     29  C   UNL     1      19.929  10.905  24.181  1.00  0.00     0.043 A 
ATOM     30  C   UNL     1      20.243  11.197  25.494  1.00  0.00     0.141 A 
ATOM     31  F   UNL     1      19.457  10.817  26.515  1.00  0.00    -0.205 F 
ENDBRANCH  22  25
ENDBRANCH   3  21
TORSDOF 3
ENDMDL
MODEL 19
REMARK VINA RESULT:    -7.401      5.705      8.618
REMARK INTER + INTRA:          -8.976
REMARK INTER:                  -9.281
REMARK INTRA:                   0.306
REMARK UNBOUND:                -0.277
REMARK SMILES CN1C(N)=N[C@](C)(c2cc(NC(=O)c3ccc(F)cn3)ccc2F)CS1(=O)=O
REMARK SMILES IDX 8 1 9 2 10 3 21 4 22 5 23 6 24 7 6 8 25 9 5 10 26 11 3 12
REMARK SMILES IDX 27 13 2 14 28 15 4 16 7 17 1 18 11 21 12 22 13 23 14 25
REMARK SMILES IDX 20 26 15 27 19 28 16 29 17 30 18 31
REMARK H PARENT 4 19 4 20 11 24
ROOT
ATOM      1  C   UNL     1      17.603  13.531  26.130  1.00  0.00     0.018 A 
ATOM      2  C   UNL     1      18.451  13.247  25.060  1.00  0.00     0.035 A 
ATOM      3  C   UNL     1      19.731  12.772  25.241  1.00  0.00     0.042 A 
ATOM      4  C   UNL     1      20.235  12.579  26.520  1.00  0.00     0.029 A 
ATOM      5  C   UNL     1      19.407  12.852  27.594  1.00  0.00     0.042 A 
ATOM      6  C   UNL     1      18.114  13.297  27.397  1.00  0.00     0.129 A 
ATOM      7  F   UNL     1      17.312  13.530  28.468  1.00  0.00    -0.207 F 
ENDROOT
BRANCH   1   8
ATOM      8  C   UNL     1      16.193  14.050  25.898  1.00  0.00     0.105 C 
ATOM      9  C   UNL     1      16.042  14.990  24.722  1.00  0.00     0.195 C 
ATOM     10  N   UNL     1      15.628  14.658  27.101  1.00  0.00    -0.240 NA
ATOM     11  S   UNL     1      16.978  16.475  24.981  1.00  0.00     0.239 S 
ATOM     12  C   UNL     1      15.906  15.878  27.444  1.00  0.00     0.205 C 
ATOM     13  O   UNL     1      16.307  17.523  24.233  1.00  0.00    -0.206 OA
ATOM     14  N   UNL     1      16.668  16.763  26.650  1.00  0.00    -0.243 N 
ATOM     15  O   UNL     1      18.385  16.227  24.932  1.00  0.00    -0.206 OA
ATOM     16  N   UNL     1      15.454  16.429  28.613  1.00  0.00    -0.369 N 
ATOM     17  C   UNL     1      15.263  12.861  25.644  1.00  0.00     0.044 C 
ATOM     18  C   UNL     1      17.080  18.104  27.109  1.00  0.00     0.167 C 
ATOM     19  H   UNL     1      14.913  15.890  29.235  1.00  0.00     0.159 HD
ATOM     20  H   UNL     1      15.670  17.364  28.833  1.00  0.00     0.159 HD
ENDBRANCH   1   8
BRANCH   3  21
ATOM     21  N   UNL     1      20.479  12.530  24.081  1.00  0.00    -0.321 N 
ATOM     22  C   UNL     1      20.492  11.394  23.292  1.00  0.00     0.274 C 
ATOM     23  O   UNL     1      19.929  10.342  23.562  1.00  0.00    -0.267 OA
ATOM     24  H   UNL     1      21.072  13.261  23.792  1.00  0.00     0.170 HD
BRANCH  22  25
ATOM     25  C   UNL     1      21.231  11.521  22.012  1.00  0.00     0.128 A 
ATOM     26  N   UNL     1      21.232  10.445  21.218  1.00  0.00    -0.248 NA
ATOM     27  C   UNL     1      21.862  12.711  21.693  1.00  0.00     0.037 A 
ATOM     28  C   UNL     1      21.898  10.535  20.055  1.00  0.00     0.151 A 
ATOM     29  C   UNL     1      22.534  12.775  20.486  1.00  0.00     0.043 A 
ATOM     30  C   UNL     1      22.560  11.673  19.653  1.00  0.00     0.141 A 
ATOM     31  F   UNL     1      23.192  11.691  18.468  1.00  0.00    -0.205 F 
ENDBRANCH  22  25
ENDBRANCH   3  21
TORSDOF 3
ENDMDL
MODEL 20
REMARK VINA RESULT:    -7.257      4.458      7.803
REMARK INTER + INTRA:          -8.807
REMARK INTER:                  -8.667
REMARK INTRA:                  -0.140
REMARK UNBOUND:                -0.277
REMARK SMILES CN1C(N)=N[C@](C)(c2cc(NC(=O)c3ccc(F)cn3)ccc2F)CS1(=O)=O
REMARK SMILES IDX 8 1 9 2 10 3 21 4 22 5 23 6 24 7 6 8 25 9 5 10 26 11 3 12
REMARK SMILES IDX 27 13 2 14 28 15 4 16 7 17 1 18 11 21 12 22 13 23 14 25
REMARK SMILES IDX 20 26 15 27 19 28 16 29 17 30 18 31
REMARK H PARENT 4 19 4 20 11 24
ROOT
ATOM      1  C   UNL     1      27.293  15.436  19.800  1.00  0.00     0.018 A 
ATOM      2  C   UNL     1      26.216  14.674  20.248  1.00  0.00     0.035 A 
ATOM      3  C   UNL     1      25.497  13.850  19.411  1.00  0.00     0.042 A 
ATOM      4  C   UNL     1      25.816  13.769  18.061  1.00  0.00     0.029 A 
ATOM      5  C   UNL     1      26.885  14.516  17.599  1.00  0.00     0.042 A 
ATOM      6  C   UNL     1      27.617  15.313  18.458  1.00  0.00     0.129 A 
ATOM      7  F   UNL     1      28.680  16.014  17.985  1.00  0.00    -0.207 F 
ENDROOT
BRANCH   1   8
ATOM      8  C   UNL     1      28.069  16.334  20.751  1.00  0.00     0.105 C 
ATOM      9  C   UNL     1      29.529  15.976  20.923  1.00  0.00     0.195 C 
ATOM     10  N   UNL     1      27.421  16.440  22.057  1.00  0.00    -0.240 NA
ATOM     11  S   UNL     1      29.697  14.371  21.662  1.00  0.00     0.239 S 
ATOM     12  C   UNL     1      27.570  15.528  22.968  1.00  0.00     0.205 C 
ATOM     13  O   UNL     1      30.961  14.375  22.377  1.00  0.00    -0.206 OA
ATOM     14  N   UNL     1      28.444  14.426  22.841  1.00  0.00    -0.243 N 
ATOM     15  O   UNL     1      29.282  13.333  20.770  1.00  0.00    -0.206 OA
ATOM     16  N   UNL     1      26.899  15.571  24.161  1.00  0.00    -0.369 N 
ATOM     17  C   UNL     1      28.019  17.771  20.225  1.00  0.00     0.044 C 
ATOM     18  C   UNL     1      28.510  13.333  23.831  1.00  0.00     0.167 C 
ATOM     19  H   UNL     1      26.266  16.302  24.343  1.00  0.00     0.159 HD
ATOM     20  H   UNL     1      27.051  14.871  24.836  1.00  0.00     0.159 HD
ENDBRANCH   1   8
BRANCH   3  21
ATOM     21  N   UNL     1      24.436  13.140  19.988  1.00  0.00    -0.321 N 
ATOM     22  C   UNL     1      23.118  13.080  19.570  1.00  0.00     0.274 C 
ATOM     23  O   UNL     1      22.630  13.760  18.677  1.00  0.00    -0.267 OA
ATOM     24  H   UNL     1      24.657  12.617  20.792  1.00  0.00     0.170 HD
BRANCH  22  25
ATOM     25  C   UNL     1      22.280  12.074  20.266  1.00  0.00     0.128 A 
ATOM     26  N   UNL     1      21.830  12.412  21.479  1.00  0.00    -0.248 NA
ATOM     27  C   UNL     1      21.994  10.867  19.649  1.00  0.00     0.037 A 
ATOM     28  C   UNL     1      21.072  11.515  22.130  1.00  0.00     0.151 A 
ATOM     29  C   UNL     1      21.205   9.966  20.343  1.00  0.00     0.043 A 
ATOM     30  C   UNL     1      20.739  10.287  21.603  1.00  0.00     0.141 A 
ATOM     31  F   UNL     1      19.963   9.448  22.310  1.00  0.00    -0.205 F 
ENDBRANCH  22  25
ENDBRANCH   3  21
TORSDOF 3
ENDMDL
