MODEL 1
REMARK VINA RESULT:    -0.649      0.000      0.000
REMARK INTER + INTRA:          -0.649
REMARK INTER:                  -0.649
REMARK INTRA:                   0.000
REMARK UNBOUND:                 0.000
REMARK SMILES P
REMARK SMILES IDX 1 1
REMARK H PARENT 1 2 1 3 1 4
ROOT
ATOM      1  P   UNL     1     139.994 151.631 163.062  1.00  0.00    -0.153 P 
ATOM      2  H   UNL     1     139.787 152.934 163.465  1.00  0.00     0.051 HD
ATOM      3  H   UNL     1     141.313 151.469 162.690  1.00  0.00     0.051 HD
ATOM      4  H   UNL     1     139.175 151.346 161.988  1.00  0.00     0.051 HD
ENDROOT
TORSDOF 0
ENDMDL
MODEL 2
REMARK VINA RESULT:    -0.554      3.145      3.145
REMARK INTER + INTRA:          -0.554
REMARK INTER:                  -0.554
REMARK INTRA:                   0.000
REMARK UNBOUND:                 0.000
REMARK SMILES P
REMARK SMILES IDX 1 1
REMARK H PARENT 1 2 1 3 1 4
ROOT
ATOM      1  P   UNL     1     138.623 151.287 160.253  1.00  0.00    -0.153 P 
ATOM      2  H   UNL     1     139.033 150.709 159.069  1.00  0.00     0.051 HD
ATOM      3  H   UNL     1     139.041 150.509 161.314  1.00  0.00     0.051 HD
ATOM      4  H   UNL     1     137.245 151.380 160.266  1.00  0.00     0.051 HD
ENDROOT
TORSDOF 0
ENDMDL
MODEL 3
REMARK VINA RESULT:    -0.542      3.703      3.703
REMARK INTER + INTRA:          -0.542
REMARK INTER:                  -0.542
REMARK INTRA:                   0.000
REMARK UNBOUND:                 0.000
REMARK SMILES P
REMARK SMILES IDX 1 1
REMARK H PARENT 1 2 1 3 1 4
ROOT
ATOM      1  P   UNL     1     139.008 151.143 166.597  1.00  0.00    -0.153 P 
ATOM      2  H   UNL     1     137.678 151.408 166.850  1.00  0.00     0.051 HD
ATOM      3  H   UNL     1     139.681 150.988 167.792  1.00  0.00     0.051 HD
ATOM      4  H   UNL     1     139.560 152.193 165.891  1.00  0.00     0.051 HD
ENDROOT
TORSDOF 0
ENDMDL
MODEL 4
REMARK VINA RESULT:    -0.534      8.332      8.332
REMARK INTER + INTRA:          -0.534
REMARK INTER:                  -0.534
REMARK INTRA:                   0.000
REMARK UNBOUND:                 0.000
REMARK SMILES P
REMARK SMILES IDX 1 1
REMARK H PARENT 1 2 1 3 1 4
ROOT
ATOM      1  P   UNL     1     135.679 153.376 156.152  1.00  0.00    -0.153 P 
ATOM      2  H   UNL     1     134.444 153.077 155.614  1.00  0.00     0.051 HD
ATOM      3  H   UNL     1     136.670 152.968 155.283  1.00  0.00     0.051 HD
ATOM      4  H   UNL     1     135.825 152.722 157.358  1.00  0.00     0.051 HD
ENDROOT
TORSDOF 0
ENDMDL
MODEL 5
REMARK VINA RESULT:    -0.486     15.511     15.511
REMARK INTER + INTRA:          -0.486
REMARK INTER:                  -0.486
REMARK INTRA:                   0.000
REMARK UNBOUND:                 0.000
REMARK SMILES P
REMARK SMILES IDX 1 1
REMARK H PARENT 1 2 1 3 1 4
ROOT
ATOM      1  P   UNL     1     141.577 141.185 174.418  1.00  0.00    -0.153 P 
ATOM      2  H   UNL     1     140.342 140.885 173.879  1.00  0.00     0.051 HD
ATOM      3  H   UNL     1     142.568 140.776 173.549  1.00  0.00     0.051 HD
ATOM      4  H   UNL     1     141.723 140.530 175.624  1.00  0.00     0.051 HD
ENDROOT
TORSDOF 0
ENDMDL
MODEL 6
REMARK VINA RESULT:    -0.479     11.571     11.571
REMARK INTER + INTRA:          -0.479
REMARK INTER:                  -0.479
REMARK INTRA:                   0.000
REMARK UNBOUND:                 0.000
REMARK SMILES P
REMARK SMILES IDX 1 1
REMARK H PARENT 1 2 1 3 1 4
ROOT
ATOM      1  P   UNL     1     137.705 160.775 169.773  1.00  0.00    -0.153 P 
ATOM      2  H   UNL     1     138.019 161.587 170.844  1.00  0.00     0.051 HD
ATOM      3  H   UNL     1     138.862 160.418 169.112  1.00  0.00     0.051 HD
ATOM      4  H   UNL     1     136.872 161.457 168.908  1.00  0.00     0.051 HD
ENDROOT
TORSDOF 0
ENDMDL
MODEL 7
REMARK VINA RESULT:    -0.475      4.836      4.836
REMARK INTER + INTRA:          -0.475
REMARK INTER:                  -0.475
REMARK INTRA:                   0.000
REMARK UNBOUND:                 0.000
REMARK SMILES P
REMARK SMILES IDX 1 1
REMARK H PARENT 1 2 1 3 1 4
ROOT
ATOM      1  P   UNL     1     137.842 152.947 158.936  1.00  0.00    -0.153 P 
ATOM      2  H   UNL     1     137.109 153.963 159.514  1.00  0.00     0.051 HD
ATOM      3  H   UNL     1     137.210 151.741 159.155  1.00  0.00     0.051 HD
ATOM      4  H   UNL     1     139.104 152.915 159.495  1.00  0.00     0.051 HD
ENDROOT
TORSDOF 0
ENDMDL
MODEL 8
REMARK VINA RESULT:    -0.473     11.373     11.373
REMARK INTER + INTRA:          -0.473
REMARK INTER:                  -0.473
REMARK INTRA:                   0.000
REMARK UNBOUND:                 0.000
REMARK SMILES P
REMARK SMILES IDX 1 1
REMARK H PARENT 1 2 1 3 1 4
ROOT
ATOM      1  P   UNL     1     130.909 153.572 156.501  1.00  0.00    -0.153 P 
ATOM      2  H   UNL     1     130.172 152.830 157.400  1.00  0.00     0.051 HD
ATOM      3  H   UNL     1     132.234 153.582 156.890  1.00  0.00     0.051 HD
ATOM      4  H   UNL     1     130.429 154.866 156.468  1.00  0.00     0.051 HD
ENDROOT
TORSDOF 0
ENDMDL
MODEL 9
REMARK VINA RESULT:    -0.444      7.775      7.775
REMARK INTER + INTRA:          -0.444
REMARK INTER:                  -0.444
REMARK INTRA:                   0.000
REMARK UNBOUND:                 0.000
REMARK SMILES P
REMARK SMILES IDX 1 1
REMARK H PARENT 1 2 1 3 1 4
ROOT
ATOM      1  P   UNL     1     137.438 151.568 170.404  1.00  0.00    -0.153 P 
ATOM      2  H   UNL     1     137.428 150.965 169.162  1.00  0.00     0.051 HD
ATOM      3  H   UNL     1     138.628 151.286 171.043  1.00  0.00     0.051 HD
ATOM      4  H   UNL     1     136.385 151.088 171.156  1.00  0.00     0.051 HD
ENDROOT
TORSDOF 0
ENDMDL
