MODEL 1
REMARK VINA RESULT:    -9.876      0.000      0.000
REMARK INTER + INTRA:         -11.352
REMARK INTER:                 -11.031
REMARK INTRA:                  -0.321
REMARK UNBOUND:                -0.321
REMARK SMILES O=C(N[C@H]1CN2CCC1CC2)c1cc2cccc(Cl)c2s1
REMARK SMILES IDX 12 1 13 2 14 3 20 4 18 5 17 6 16 7 15 8 21 9 19 10 2 11 3 12
REMARK SMILES IDX 1 13 4 15 9 16 5 17 8 18 10 19 6 20 7 21 11 22
REMARK H PARENT 3 14
ROOT
ATOM      1  C   UNL     1     143.909 138.468  90.695  1.00  0.00     0.093 A 
ATOM      2  C   UNL     1     143.419 137.237  90.971  1.00  0.00     0.034 A 
ATOM      3  C   UNL     1     144.321 136.189  91.355  1.00  0.00    -0.005 A 
ATOM      4  C   UNL     1     145.695 136.610  91.400  1.00  0.00     0.054 A 
ATOM      5  C   UNL     1     146.672 135.711  91.755  1.00  0.00     0.058 A 
ATOM      6  C   UNL     1     146.324 134.393  92.069  1.00  0.00     0.022 A 
ATOM      7  C   UNL     1     144.980 133.985  92.023  1.00  0.00     0.002 A 
ATOM      8  C   UNL     1     143.987 134.897  91.664  1.00  0.00     0.010 A 
ATOM      9  S   UNL     1     145.632 138.363  90.921  1.00  0.00    -0.128 S 
ATOM     10  Cl  UNL     1     148.379 136.222  91.813  1.00  0.00    -0.083 Cl
ENDROOT
BRANCH   1  11
ATOM     11  C   UNL     1     143.083 139.688  90.271  1.00  0.00     0.261 C 
ATOM     12  N   UNL     1     141.638 139.604  90.181  1.00  0.00    -0.347 N 
ATOM     13  O   UNL     1     143.631 140.705  90.012  1.00  0.00    -0.268 OA
ATOM     14  H   UNL     1     141.175 138.762  90.392  1.00  0.00     0.164 HD
BRANCH  12  15
ATOM     15  C   UNL     1     140.864 140.797  89.769  1.00  0.00     0.099 C 
ATOM     16  C   UNL     1     139.613 140.865  90.518  1.00  0.00     0.015 C 
ATOM     17  C   UNL     1     140.522 140.709  88.268  1.00  0.00     0.109 C 
ATOM     18  C   UNL     1     138.868 142.005  90.062  1.00  0.00     0.021 C 
ATOM     19  C   UNL     1     138.838 139.662  90.228  1.00  0.00     0.021 C 
ATOM     20  N   UNL     1     139.141 140.749  88.061  1.00  0.00    -0.301 NA
ATOM     21  C   UNL     1     138.610 141.907  88.587  1.00  0.00     0.085 C 
ATOM     22  C   UNL     1     138.533 139.631  88.682  1.00  0.00     0.085 C 
ENDBRANCH  12  15
ENDBRANCH   1  11
TORSDOF 2
ENDMDL
MODEL 2
REMARK VINA RESULT:    -9.131      1.322      1.872
REMARK INTER + INTRA:         -10.520
REMARK INTER:                 -10.217
REMARK INTRA:                  -0.303
REMARK UNBOUND:                -0.321
REMARK SMILES O=C(N[C@H]1CN2CCC1CC2)c1cc2cccc(Cl)c2s1
REMARK SMILES IDX 12 1 13 2 14 3 20 4 18 5 17 6 16 7 15 8 21 9 19 10 2 11 3 12
REMARK SMILES IDX 1 13 4 15 9 16 5 17 8 18 10 19 6 20 7 21 11 22
REMARK H PARENT 3 14
ROOT
ATOM      1  C   UNL     1     144.207 138.669  90.680  1.00  0.00     0.093 A 
ATOM      2  C   UNL     1     145.542 138.730  90.893  1.00  0.00     0.034 A 
ATOM      3  C   UNL     1     146.241 137.557  91.334  1.00  0.00    -0.005 A 
ATOM      4  C   UNL     1     145.384 136.413  91.496  1.00  0.00     0.054 A 
ATOM      5  C   UNL     1     145.916 135.217  91.913  1.00  0.00     0.058 A 
ATOM      6  C   UNL     1     147.286 135.118  92.176  1.00  0.00     0.022 A 
ATOM      7  C   UNL     1     148.120 136.238  92.018  1.00  0.00     0.002 A 
ATOM      8  C   UNL     1     147.582 137.454  91.595  1.00  0.00     0.010 A 
ATOM      9  S   UNL     1     143.736 137.034  91.043  1.00  0.00    -0.128 S 
ATOM     10  Cl  UNL     1     144.862 133.793  92.118  1.00  0.00    -0.083 Cl
ENDROOT
BRANCH   1  11
ATOM     11  C   UNL     1     143.320 139.829  90.212  1.00  0.00     0.261 C 
ATOM     12  N   UNL     1     141.884 139.660  90.101  1.00  0.00    -0.347 N 
ATOM     13  O   UNL     1     143.813 140.870  89.937  1.00  0.00    -0.268 OA
ATOM     14  H   UNL     1     141.467 138.798  90.326  1.00  0.00     0.164 HD
BRANCH  12  15
ATOM     15  C   UNL     1     141.051 140.796  89.647  1.00  0.00     0.099 C 
ATOM     16  C   UNL     1     139.830 140.871  90.445  1.00  0.00     0.015 C 
ATOM     17  C   UNL     1     140.650 140.598  88.172  1.00  0.00     0.109 C 
ATOM     18  C   UNL     1     139.025 141.953  89.949  1.00  0.00     0.021 C 
ATOM     19  C   UNL     1     139.088 139.626  90.267  1.00  0.00     0.021 C 
ATOM     20  N   UNL     1     139.261 140.577  88.023  1.00  0.00    -0.301 NA
ATOM     21  C   UNL     1     138.711 141.748  88.496  1.00  0.00     0.085 C 
ATOM     22  C   UNL     1     138.721 139.483  88.741  1.00  0.00     0.085 C 
ENDBRANCH  12  15
ENDBRANCH   1  11
TORSDOF 2
ENDMDL
MODEL 3
REMARK VINA RESULT:    -7.985      1.833      2.334
REMARK INTER + INTRA:          -9.240
REMARK INTER:                  -8.937
REMARK INTRA:                  -0.303
REMARK UNBOUND:                -0.321
REMARK SMILES O=C(N[C@H]1CN2CCC1CC2)c1cc2cccc(Cl)c2s1
REMARK SMILES IDX 12 1 13 2 14 3 20 4 18 5 17 6 16 7 15 8 21 9 19 10 2 11 3 12
REMARK SMILES IDX 1 13 4 15 9 16 5 17 8 18 10 19 6 20 7 21 11 22
REMARK H PARENT 3 14
ROOT
ATOM      1  C   UNL     1     142.372 136.928  90.839  1.00  0.00     0.093 A 
ATOM      2  C   UNL     1     142.790 135.663  91.077  1.00  0.00     0.034 A 
ATOM      3  C   UNL     1     144.142 135.434  91.498  1.00  0.00    -0.005 A 
ATOM      4  C   UNL     1     144.912 136.643  91.619  1.00  0.00     0.054 A 
ATOM      5  C   UNL     1     146.226 136.578  92.015  1.00  0.00     0.058 A 
ATOM      6  C   UNL     1     146.807 135.338  92.299  1.00  0.00     0.022 A 
ATOM      7  C   UNL     1     146.052 134.158  92.179  1.00  0.00     0.002 A 
ATOM      8  C   UNL     1     144.717 134.222  91.777  1.00  0.00     0.010 A 
ATOM      9  S   UNL     1     143.742 137.955  91.154  1.00  0.00    -0.128 S 
ATOM     10  Cl  UNL     1     147.189 138.070  92.167  1.00  0.00    -0.083 Cl
ENDROOT
BRANCH   1  11
ATOM     11  C   UNL     1     140.967 137.337  90.383  1.00  0.00     0.261 C 
ATOM     12  N   UNL     1     140.689 138.704  89.987  1.00  0.00    -0.347 N 
ATOM     13  O   UNL     1     140.101 136.530  90.359  1.00  0.00    -0.268 OA
ATOM     14  H   UNL     1     141.403 139.382  90.007  1.00  0.00     0.164 HD
BRANCH  12  15
ATOM     15  C   UNL     1     139.323 139.073  89.552  1.00  0.00     0.099 C 
ATOM     16  C   UNL     1     139.388 139.927  88.370  1.00  0.00     0.015 C 
ATOM     17  C   UNL     1     138.607 139.854  90.672  1.00  0.00     0.109 C 
ATOM     18  C   UNL     1     138.051 140.303  88.002  1.00  0.00     0.021 C 
ATOM     19  C   UNL     1     140.128 141.138  88.718  1.00  0.00     0.021 C 
ATOM     20  N   UNL     1     138.209 141.119  90.231  1.00  0.00    -0.301 NA
ATOM     21  C   UNL     1     137.373 141.006  89.141  1.00  0.00     0.085 C 
ATOM     22  C   UNL     1     139.348 141.879  89.870  1.00  0.00     0.085 C 
ENDBRANCH  12  15
ENDBRANCH   1  11
TORSDOF 2
ENDMDL
MODEL 4
REMARK VINA RESULT:    -7.653      3.908      7.999
REMARK INTER + INTRA:          -8.869
REMARK INTER:                  -8.559
REMARK INTRA:                  -0.310
REMARK UNBOUND:                -0.321
REMARK SMILES O=C(N[C@H]1CN2CCC1CC2)c1cc2cccc(Cl)c2s1
REMARK SMILES IDX 12 1 13 2 14 3 20 4 18 5 17 6 16 7 15 8 21 9 19 10 2 11 3 12
REMARK SMILES IDX 1 13 4 15 9 16 5 17 8 18 10 19 6 20 7 21 11 22
REMARK H PARENT 3 14
ROOT
ATOM      1  C   UNL     1     144.083 138.511  91.413  1.00  0.00     0.093 A 
ATOM      2  C   UNL     1     143.138 137.560  91.226  1.00  0.00     0.034 A 
ATOM      3  C   UNL     1     141.873 137.924  90.656  1.00  0.00    -0.005 A 
ATOM      4  C   UNL     1     141.774 139.324  90.340  1.00  0.00     0.054 A 
ATOM      5  C   UNL     1     140.618 139.817  89.786  1.00  0.00     0.058 A 
ATOM      6  C   UNL     1     139.545 138.957  89.532  1.00  0.00     0.022 A 
ATOM      7  C   UNL     1     139.645 137.590  89.843  1.00  0.00     0.002 A 
ATOM      8  C   UNL     1     140.818 137.087  90.406  1.00  0.00     0.010 A 
ATOM      9  S   UNL     1     143.385 140.000  90.843  1.00  0.00    -0.128 S 
ATOM     10  Cl  UNL     1     140.485 141.551  89.391  1.00  0.00    -0.083 Cl
ENDROOT
BRANCH   1  11
ATOM     11  C   UNL     1     145.476 138.285  92.009  1.00  0.00     0.261 C 
ATOM     12  N   UNL     1     146.564 137.802  91.180  1.00  0.00    -0.347 N 
ATOM     13  O   UNL     1     145.665 138.505  93.157  1.00  0.00    -0.268 OA
ATOM     14  H   UNL     1     146.415 137.615  90.225  1.00  0.00     0.164 HD
BRANCH  12  15
ATOM     15  C   UNL     1     147.901 137.593  91.782  1.00  0.00     0.099 C 
ATOM     16  C   UNL     1     148.940 138.040  90.859  1.00  0.00     0.015 C 
ATOM     17  C   UNL     1     148.121 136.093  92.064  1.00  0.00     0.109 C 
ATOM     18  C   UNL     1     150.221 137.781  91.453  1.00  0.00     0.021 C 
ATOM     19  C   UNL     1     148.833 137.256  89.631  1.00  0.00     0.021 C 
ATOM     20  N   UNL     1     149.247 135.612  91.392  1.00  0.00    -0.301 NA
ATOM     21  C   UNL     1     150.368 136.321  91.766  1.00  0.00     0.085 C 
ATOM     22  C   UNL     1     149.058 135.738  89.994  1.00  0.00     0.085 C 
ENDBRANCH  12  15
ENDBRANCH   1  11
TORSDOF 2
ENDMDL
MODEL 5
REMARK VINA RESULT:    -7.506      3.897      8.147
REMARK INTER + INTRA:          -8.705
REMARK INTER:                  -8.391
REMARK INTRA:                  -0.314
REMARK UNBOUND:                -0.321
REMARK SMILES O=C(N[C@H]1CN2CCC1CC2)c1cc2cccc(Cl)c2s1
REMARK SMILES IDX 12 1 13 2 14 3 20 4 18 5 17 6 16 7 15 8 21 9 19 10 2 11 3 12
REMARK SMILES IDX 1 13 4 15 9 16 5 17 8 18 10 19 6 20 7 21 11 22
REMARK H PARENT 3 14
ROOT
ATOM      1  C   UNL     1     144.383 138.294  91.488  1.00  0.00     0.093 A 
ATOM      2  C   UNL     1     143.679 139.388  91.117  1.00  0.00     0.034 A 
ATOM      3  C   UNL     1     142.319 139.240  90.686  1.00  0.00    -0.005 A 
ATOM      4  C   UNL     1     141.861 137.876  90.711  1.00  0.00     0.054 A 
ATOM      5  C   UNL     1     140.575 137.582  90.325  1.00  0.00     0.058 A 
ATOM      6  C   UNL     1     139.720 138.609  89.911  1.00  0.00     0.022 A 
ATOM      7  C   UNL     1     140.172 139.939  89.887  1.00  0.00     0.002 A 
ATOM      8  C   UNL     1     141.477 140.240  90.278  1.00  0.00     0.010 A 
ATOM      9  S   UNL     1     143.302 136.942  91.306  1.00  0.00    -0.128 S 
ATOM     10  Cl  UNL     1     139.997 135.896  90.351  1.00  0.00    -0.083 Cl
ENDROOT
BRANCH   1  11
ATOM     11  C   UNL     1     145.839 138.284  91.968  1.00  0.00     0.261 C 
ATOM     12  N   UNL     1     146.830 137.465  91.299  1.00  0.00    -0.347 N 
ATOM     13  O   UNL     1     146.154 138.950  92.896  1.00  0.00    -0.268 OA
ATOM     14  H   UNL     1     146.576 136.907  90.529  1.00  0.00     0.164 HD
BRANCH  12  15
ATOM     15  C   UNL     1     148.230 137.474  91.783  1.00  0.00     0.099 C 
ATOM     16  C   UNL     1     149.106 138.051  90.768  1.00  0.00     0.015 C 
ATOM     17  C   UNL     1     148.699 136.032  92.062  1.00  0.00     0.109 C 
ATOM     18  C   UNL     1     150.458 138.002  91.250  1.00  0.00     0.021 C 
ATOM     19  C   UNL     1     149.017 137.229  89.563  1.00  0.00     0.021 C 
ATOM     20  N   UNL     1     149.824 135.710  91.299  1.00  0.00    -0.301 NA
ATOM     21  C   UNL     1     150.851 136.589  91.565  1.00  0.00     0.085 C 
ATOM     22  C   UNL     1     149.500 135.772  89.922  1.00  0.00     0.085 C 
ENDBRANCH  12  15
ENDBRANCH   1  11
TORSDOF 2
ENDMDL
MODEL 6
REMARK VINA RESULT:    -7.391      3.442      7.814
REMARK INTER + INTRA:          -8.577
REMARK INTER:                  -8.262
REMARK INTRA:                  -0.315
REMARK UNBOUND:                -0.321
REMARK SMILES O=C(N[C@H]1CN2CCC1CC2)c1cc2cccc(Cl)c2s1
REMARK SMILES IDX 12 1 13 2 14 3 20 4 18 5 17 6 16 7 15 8 21 9 19 10 2 11 3 12
REMARK SMILES IDX 1 13 4 15 9 16 5 17 8 18 10 19 6 20 7 21 11 22
REMARK H PARENT 3 14
ROOT
ATOM      1  C   UNL     1     142.842 139.939  90.269  1.00  0.00     0.093 A 
ATOM      2  C   UNL     1     141.754 140.287  90.995  1.00  0.00     0.034 A 
ATOM      3  C   UNL     1     140.479 140.400  90.346  1.00  0.00    -0.005 A 
ATOM      4  C   UNL     1     140.531 140.112  88.938  1.00  0.00     0.054 A 
ATOM      5  C   UNL     1     139.383 140.179  88.186  1.00  0.00     0.058 A 
ATOM      6  C   UNL     1     138.173 140.528  88.793  1.00  0.00     0.022 A 
ATOM      7  C   UNL     1     138.126 140.810  90.169  1.00  0.00     0.002 A 
ATOM      8  C   UNL     1     139.290 140.742  90.935  1.00  0.00     0.010 A 
ATOM      9  S   UNL     1     142.281 139.722  88.635  1.00  0.00    -0.128 S 
ATOM     10  Cl  UNL     1     139.436 139.825  86.439  1.00  0.00    -0.083 Cl
ENDROOT
BRANCH   1  11
ATOM     11  C   UNL     1     144.267 139.779  90.810  1.00  0.00     0.261 C 
ATOM     12  N   UNL     1     144.887 138.470  90.877  1.00  0.00    -0.347 N 
ATOM     13  O   UNL     1     144.865 140.732  91.178  1.00  0.00    -0.268 OA
ATOM     14  H   UNL     1     144.396 137.672  90.575  1.00  0.00     0.164 HD
BRANCH  12  15
ATOM     15  C   UNL     1     146.265 138.343  91.404  1.00  0.00     0.099 C 
ATOM     16  C   UNL     1     147.188 138.024  90.319  1.00  0.00     0.015 C 
ATOM     17  C   UNL     1     146.328 137.203  92.441  1.00  0.00     0.109 C 
ATOM     18  C   UNL     1     148.504 137.862  90.871  1.00  0.00     0.021 C 
ATOM     19  C   UNL     1     146.778 136.753  89.726  1.00  0.00     0.021 C 
ATOM     20  N   UNL     1     147.255 136.227  92.064  1.00  0.00    -0.301 NA
ATOM     21  C   UNL     1     148.506 136.786  91.916  1.00  0.00     0.085 C 
ATOM     22  C   UNL     1     146.857 135.640  90.838  1.00  0.00     0.085 C 
ENDBRANCH  12  15
ENDBRANCH   1  11
TORSDOF 2
ENDMDL
MODEL 7
REMARK VINA RESULT:    -7.233      3.497      7.889
REMARK INTER + INTRA:          -8.401
REMARK INTER:                  -8.087
REMARK INTRA:                  -0.314
REMARK UNBOUND:                -0.321
REMARK SMILES O=C(N[C@H]1CN2CCC1CC2)c1cc2cccc(Cl)c2s1
REMARK SMILES IDX 12 1 13 2 14 3 20 4 18 5 17 6 16 7 15 8 21 9 19 10 2 11 3 12
REMARK SMILES IDX 1 13 4 15 9 16 5 17 8 18 10 19 6 20 7 21 11 22
REMARK H PARENT 3 14
ROOT
ATOM      1  C   UNL     1     142.935 140.080  90.318  1.00  0.00     0.093 A 
ATOM      2  C   UNL     1     142.524 140.253  89.040  1.00  0.00     0.034 A 
ATOM      3  C   UNL     1     141.124 140.410  88.764  1.00  0.00    -0.005 A 
ATOM      4  C   UNL     1     140.304 140.363  89.945  1.00  0.00     0.054 A 
ATOM      5  C   UNL     1     138.941 140.500  89.833  1.00  0.00     0.058 A 
ATOM      6  C   UNL     1     138.361 140.686  88.575  1.00  0.00     0.022 A 
ATOM      7  C   UNL     1     139.166 140.730  87.423  1.00  0.00     0.002 A 
ATOM      8  C   UNL     1     140.550 140.590  87.534  1.00  0.00     0.010 A 
ATOM      9  S   UNL     1     141.495 140.111  91.295  1.00  0.00    -0.128 S 
ATOM     10  Cl  UNL     1     137.915 140.442  91.290  1.00  0.00    -0.083 Cl
ENDROOT
BRANCH   1  11
ATOM     11  C   UNL     1     144.386 139.897  90.776  1.00  0.00     0.261 C 
ATOM     12  N   UNL     1     145.064 138.629  90.589  1.00  0.00    -0.347 N 
ATOM     13  O   UNL     1     144.957 140.799  91.289  1.00  0.00    -0.268 OA
ATOM     14  H   UNL     1     144.596 137.873  90.166  1.00  0.00     0.164 HD
BRANCH  12  15
ATOM     15  C   UNL     1     146.466 138.479  91.041  1.00  0.00     0.099 C 
ATOM     16  C   UNL     1     147.267 137.858  89.990  1.00  0.00     0.015 C 
ATOM     17  C   UNL     1     146.523 137.573  92.287  1.00  0.00     0.109 C 
ATOM     18  C   UNL     1     148.607 137.686  90.477  1.00  0.00     0.021 C 
ATOM     19  C   UNL     1     146.707 136.540  89.704  1.00  0.00     0.021 C 
ATOM     20  N   UNL     1     147.333 136.456  92.065  1.00  0.00    -0.301 NA
ATOM     21  C   UNL     1     148.608 136.850  91.722  1.00  0.00     0.085 C 
ATOM     22  C   UNL     1     146.788 135.673  91.018  1.00  0.00     0.085 C 
ENDBRANCH  12  15
ENDBRANCH   1  11
TORSDOF 2
ENDMDL
MODEL 8
REMARK VINA RESULT:    -7.205      2.007      2.755
REMARK INTER + INTRA:          -8.369
REMARK INTER:                  -8.046
REMARK INTRA:                  -0.323
REMARK UNBOUND:                -0.321
REMARK SMILES O=C(N[C@H]1CN2CCC1CC2)c1cc2cccc(Cl)c2s1
REMARK SMILES IDX 12 1 13 2 14 3 20 4 18 5 17 6 16 7 15 8 21 9 19 10 2 11 3 12
REMARK SMILES IDX 1 13 4 15 9 16 5 17 8 18 10 19 6 20 7 21 11 22
REMARK H PARENT 3 14
ROOT
ATOM      1  C   UNL     1     142.496 137.167  90.808  1.00  0.00     0.093 A 
ATOM      2  C   UNL     1     143.464 138.058  91.124  1.00  0.00     0.034 A 
ATOM      3  C   UNL     1     144.756 137.582  91.528  1.00  0.00    -0.005 A 
ATOM      4  C   UNL     1     144.854 136.147  91.541  1.00  0.00     0.054 A 
ATOM      5  C   UNL     1     146.036 135.548  91.907  1.00  0.00     0.058 A 
ATOM      6  C   UNL     1     147.134 136.336  92.264  1.00  0.00     0.022 A 
ATOM      7  C   UNL     1     147.034 137.738  92.251  1.00  0.00     0.002 A 
ATOM      8  C   UNL     1     145.835 138.348  91.880  1.00  0.00     0.010 A 
ATOM      9  S   UNL     1     143.206 135.591  91.013  1.00  0.00    -0.128 S 
ATOM     10  Cl  UNL     1     146.168 133.770  91.927  1.00  0.00    -0.083 Cl
ENDROOT
BRANCH   1  11
ATOM     11  C   UNL     1     141.070 137.512  90.362  1.00  0.00     0.261 C 
ATOM     12  N   UNL     1     140.733 138.860  89.949  1.00  0.00    -0.347 N 
ATOM     13  O   UNL     1     140.237 136.670  90.359  1.00  0.00    -0.268 OA
ATOM     14  H   UNL     1     141.419 139.566  89.951  1.00  0.00     0.164 HD
BRANCH  12  15
ATOM     15  C   UNL     1     139.349 139.167  89.523  1.00  0.00     0.099 C 
ATOM     16  C   UNL     1     139.367 140.010  88.332  1.00  0.00     0.015 C 
ATOM     17  C   UNL     1     138.612 139.930  90.642  1.00  0.00     0.109 C 
ATOM     18  C   UNL     1     138.012 140.326  87.974  1.00  0.00     0.021 C 
ATOM     19  C   UNL     1     140.058 141.254  88.659  1.00  0.00     0.021 C 
ATOM     20  N   UNL     1     138.157 141.172  90.192  1.00  0.00    -0.301 NA
ATOM     21  C   UNL     1     137.316 141.012  89.112  1.00  0.00     0.085 C 
ATOM     22  C   UNL     1     139.260 141.975  89.811  1.00  0.00     0.085 C 
ENDBRANCH  12  15
ENDBRANCH   1  11
TORSDOF 2
ENDMDL
MODEL 9
REMARK VINA RESULT:    -6.992      4.575      8.669
REMARK INTER + INTRA:          -8.131
REMARK INTER:                  -7.823
REMARK INTRA:                  -0.308
REMARK UNBOUND:                -0.321
REMARK SMILES O=C(N[C@H]1CN2CCC1CC2)c1cc2cccc(Cl)c2s1
REMARK SMILES IDX 12 1 13 2 14 3 20 4 18 5 17 6 16 7 15 8 21 9 19 10 2 11 3 12
REMARK SMILES IDX 1 13 4 15 9 16 5 17 8 18 10 19 6 20 7 21 11 22
REMARK H PARENT 3 14
ROOT
ATOM      1  C   UNL     1     145.669 136.454  91.533  1.00  0.00     0.093 A 
ATOM      2  C   UNL     1     144.588 135.662  91.344  1.00  0.00     0.034 A 
ATOM      3  C   UNL     1     143.318 136.260  91.046  1.00  0.00    -0.005 A 
ATOM      4  C   UNL     1     143.369 137.696  90.981  1.00  0.00     0.054 A 
ATOM      5  C   UNL     1     142.225 138.406  90.702  1.00  0.00     0.058 A 
ATOM      6  C   UNL     1     141.022 137.729  90.483  1.00  0.00     0.022 A 
ATOM      7  C   UNL     1     140.976 136.326  90.547  1.00  0.00     0.002 A 
ATOM      8  C   UNL     1     142.136 135.603  90.831  1.00  0.00     0.010 A 
ATOM      9  S   UNL     1     145.109 138.089  91.329  1.00  0.00    -0.128 S 
ATOM     10  Cl  UNL     1     142.276 140.186  90.620  1.00  0.00    -0.083 Cl
ENDROOT
BRANCH   1  11
ATOM     11  C   UNL     1     147.087 135.972  91.859  1.00  0.00     0.261 C 
ATOM     12  N   UNL     1     148.239 136.591  91.230  1.00  0.00    -0.347 N 
ATOM     13  O   UNL     1     147.242 135.086  92.628  1.00  0.00    -0.268 OA
ATOM     14  H   UNL     1     148.118 137.326  90.588  1.00  0.00     0.164 HD
BRANCH  12  15
ATOM     15  C   UNL     1     149.598 136.106  91.563  1.00  0.00     0.099 C 
ATOM     16  C   UNL     1     150.410 137.207  92.073  1.00  0.00     0.015 C 
ATOM     17  C   UNL     1     150.281 135.549  90.299  1.00  0.00     0.109 C 
ATOM     18  C   UNL     1     151.732 136.713  92.342  1.00  0.00     0.021 C 
ATOM     19  C   UNL     1     150.502 138.229  91.034  1.00  0.00     0.021 C 
ATOM     20  N   UNL     1     151.473 136.225  90.028  1.00  0.00    -0.301 NA
ATOM     21  C   UNL     1     152.334 136.126  91.100  1.00  0.00     0.085 C 
ATOM     22  C   UNL     1     151.199 137.591  89.773  1.00  0.00     0.085 C 
ENDBRANCH  12  15
ENDBRANCH   1  11
TORSDOF 2
ENDMDL
MODEL 10
REMARK VINA RESULT:    -6.964      4.916      9.281
REMARK INTER + INTRA:          -8.100
REMARK INTER:                  -7.791
REMARK INTRA:                  -0.309
REMARK UNBOUND:                -0.321
REMARK SMILES O=C(N[C@H]1CN2CCC1CC2)c1cc2cccc(Cl)c2s1
REMARK SMILES IDX 12 1 13 2 14 3 20 4 18 5 17 6 16 7 15 8 21 9 19 10 2 11 3 12
REMARK SMILES IDX 1 13 4 15 9 16 5 17 8 18 10 19 6 20 7 21 11 22
REMARK H PARENT 3 14
ROOT
ATOM      1  C   UNL     1     146.447 136.846  91.713  1.00  0.00     0.093 A 
ATOM      2  C   UNL     1     146.204 138.168  91.551  1.00  0.00     0.034 A 
ATOM      3  C   UNL     1     144.876 138.607  91.231  1.00  0.00    -0.005 A 
ATOM      4  C   UNL     1     143.932 137.527  91.122  1.00  0.00     0.054 A 
ATOM      5  C   UNL     1     142.619 137.798  90.820  1.00  0.00     0.058 A 
ATOM      6  C   UNL     1     142.209 139.120  90.622  1.00  0.00     0.022 A 
ATOM      7  C   UNL     1     143.134 140.172  90.728  1.00  0.00     0.002 A 
ATOM      8  C   UNL     1     144.468 139.899  91.034  1.00  0.00     0.010 A 
ATOM      9  S   UNL     1     144.925 136.042  91.458  1.00  0.00    -0.128 S 
ATOM     10  Cl  UNL     1     141.440 136.467  90.682  1.00  0.00    -0.083 Cl
ENDROOT
BRANCH   1  11
ATOM     11  C   UNL     1     147.804 136.220  92.053  1.00  0.00     0.261 C 
ATOM     12  N   UNL     1     149.038 136.889  91.688  1.00  0.00    -0.347 N 
ATOM     13  O   UNL     1     147.844 135.178  92.615  1.00  0.00    -0.268 OA
ATOM     14  H   UNL     1     149.013 137.754  91.219  1.00  0.00     0.164 HD
BRANCH  12  15
ATOM     15  C   UNL     1     150.335 136.261  92.029  1.00  0.00     0.099 C 
ATOM     16  C   UNL     1     151.319 137.290  92.351  1.00  0.00     0.015 C 
ATOM     17  C   UNL     1     150.859 135.454  90.825  1.00  0.00     0.109 C 
ATOM     18  C   UNL     1     152.575 136.651  92.630  1.00  0.00     0.021 C 
ATOM     19  C   UNL     1     151.489 138.147  91.180  1.00  0.00     0.021 C 
ATOM     20  N   UNL     1     152.115 135.911  90.417  1.00  0.00    -0.301 NA
ATOM     21  C   UNL     1     153.016 135.829  91.456  1.00  0.00     0.085 C 
ATOM     22  C   UNL     1     152.016 137.258  89.990  1.00  0.00     0.085 C 
ENDBRANCH  12  15
ENDBRANCH   1  11
TORSDOF 2
ENDMDL
