MODEL 1
REMARK VINA RESULT:    -8.837      0.000      0.000
REMARK INTER + INTRA:         -14.411
REMARK INTER:                 -13.229
REMARK INTRA:                  -1.182
REMARK UNBOUND:                -1.182
REMARK SMILES C[C@H]1N[C@@H](N[C@@H](O)N2CCC[C@H]2[C@@H](N)O)S[C@@H]1[C@H]1CCN[C@H](C(C)(C)C(F)(F)F)C1
REMARK SMILES IDX 5 1 4 3 2 4 17 5 3 6 16 7 1 8 18 10 19 11 30 12 20 13 22 14
REMARK SMILES IDX 21 15 23 17 24 18 25 19 26 20 27 21 28 22 29 23 6 24 7 25
REMARK SMILES IDX 8 27 12 28 9 29 11 30 10 31 13 32 15 33 14 35
REMARK H PARENT 5 2 3 9 21 16 7 26 15 34 14 36 14 37
ROOT
ATOM      1  N   UNL     1      -0.039 -10.190  13.771  1.00  0.00    -0.255 NA
ATOM      2  H   UNL     1       0.117 -11.045  13.219  1.00  0.00     0.129 HD
ENDROOT
BRANCH   1   3
ATOM      3  C   UNL     1      -1.004 -10.520  14.703  1.00  0.00     0.185 C 
ATOM      4  C   UNL     1      -2.883 -11.430  15.436  1.00  0.00     0.066 C 
ATOM      5  C   UNL     1      -2.433 -10.916  16.648  1.00  0.00     0.069 C 
ATOM      6  N   UNL     1      -2.062 -11.204  14.350  1.00  0.00    -0.290 NA
ATOM      7  S   UNL     1      -0.921 -10.083  16.373  1.00  0.00    -0.122 SA
ATOM      8  C   UNL     1      -4.142 -12.208  15.227  1.00  0.00     0.025 C 
ATOM      9  H   UNL     1      -1.764 -12.108  13.958  1.00  0.00     0.125 HD
BRANCH   5  10
ATOM     10  C   UNL     1      -2.957 -10.910  18.032  1.00  0.00     0.006 C 
ATOM     11  C   UNL     1      -4.103 -11.618  18.376  1.00  0.00     0.020 C 
ATOM     12  C   UNL     1      -2.280 -10.209  19.025  1.00  0.00     0.024 C 
ATOM     13  C   UNL     1      -4.551 -11.558  19.677  1.00  0.00     0.081 C 
ATOM     14  C   UNL     1      -2.803 -10.224  20.326  1.00  0.00     0.068 C 
ATOM     15  N   UNL     1      -3.932 -10.871  20.647  1.00  0.00    -0.313 NA
ATOM     16  H   UNL     1      -4.599 -10.171  21.002  1.00  0.00     0.122 HD
BRANCH  14  17
ATOM     17  C   UNL     1      -2.068  -9.522  21.493  1.00  0.00     0.076 C 
ATOM     18  C   UNL     1      -1.504  -8.159  21.057  1.00  0.00     0.022 C 
ATOM     19  C   UNL     1      -3.023  -9.329  22.684  1.00  0.00     0.022 C 
BRANCH  17  20
ATOM     20  C   UNL     1      -0.808 -10.432  21.992  1.00  0.00     0.395 C 
ATOM     21  F   UNL     1      -0.775 -10.495  23.322  1.00  0.00    -0.170 F 
ATOM     22  F   UNL     1      -0.862 -11.681  21.545  1.00  0.00    -0.170 F 
ATOM     23  F   UNL     1       0.355  -9.937  21.585  1.00  0.00    -0.170 F 
ENDBRANCH  17  20
ENDBRANCH  14  17
ENDBRANCH   5  10
ENDBRANCH   1   3
BRANCH   1  24
ATOM     24  C   UNL     1      -0.163  -9.153  12.834  1.00  0.00     0.261 C 
BRANCH  24  25
ATOM     25  O   UNL     1      -1.225  -8.914  12.278  1.00  0.00    -0.365 OA
ATOM     26  H   UNL     1      -1.110  -8.997  11.298  1.00  0.00     0.214 HD
ENDBRANCH  24  25
BRANCH  24  27
ATOM     27  N   UNL     1       0.966  -8.405  12.561  1.00  0.00    -0.259 NA
ATOM     28  C   UNL     1       1.373  -7.327  13.477  1.00  0.00     0.104 C 
ATOM     29  C   UNL     1       1.883  -8.550  11.419  1.00  0.00     0.089 C 
ATOM     30  C   UNL     1       2.700  -6.827  12.884  1.00  0.00     0.025 C 
ATOM     31  C   UNL     1       2.678  -7.263  11.438  1.00  0.00     0.017 C 
BRANCH  28  32
ATOM     32  C   UNL     1       0.338  -6.208  13.602  1.00  0.00     0.197 C 
BRANCH  32  33
ATOM     33  O   UNL     1      -0.341  -5.876  12.626  1.00  0.00    -0.377 OA
ATOM     34  H   UNL     1       0.218  -5.351  11.999  1.00  0.00     0.212 HD
ENDBRANCH  32  33
BRANCH  32  35
ATOM     35  N   UNL     1       0.272  -5.587  14.769  1.00  0.00    -0.305 NA
ATOM     36  H   UNL     1       1.065  -4.936  14.856  1.00  0.00     0.121 HD
ATOM     37  H   UNL     1      -0.612  -5.063  14.830  1.00  0.00     0.121 HD
ENDBRANCH  32  35
ENDBRANCH  28  32
ENDBRANCH  24  27
ENDBRANCH   1  24
TORSDOF 10
ENDMDL
MODEL 2
REMARK VINA RESULT:    -8.552      2.289      3.345
REMARK INTER + INTRA:         -13.984
REMARK INTER:                 -12.899
REMARK INTRA:                  -1.085
REMARK UNBOUND:                -1.182
REMARK SMILES C[C@H]1N[C@@H](N[C@@H](O)N2CCC[C@H]2[C@@H](N)O)S[C@@H]1[C@H]1CCN[C@H](C(C)(C)C(F)(F)F)C1
REMARK SMILES IDX 5 1 4 3 2 4 17 5 3 6 16 7 1 8 18 10 19 11 30 12 20 13 22 14
REMARK SMILES IDX 21 15 23 17 24 18 25 19 26 20 27 21 28 22 29 23 6 24 7 25
REMARK SMILES IDX 8 27 12 28 9 29 11 30 10 31 13 32 15 33 14 35
REMARK H PARENT 5 2 3 9 21 16 7 26 15 34 14 36 14 37
ROOT
ATOM      1  N   UNL     1       0.695  -8.092  12.225  1.00  0.00    -0.255 NA
ATOM      2  H   UNL     1       1.642  -7.755  12.451  1.00  0.00     0.129 HD
ENDROOT
BRANCH   1   3
ATOM      3  C   UNL     1       0.136  -8.469  13.432  1.00  0.00     0.185 C 
ATOM      4  C   UNL     1      -0.867  -9.827  14.862  1.00  0.00     0.066 C 
ATOM      5  C   UNL     1      -0.708  -8.736  15.711  1.00  0.00     0.069 C 
ATOM      6  N   UNL     1      -0.379  -9.662  13.581  1.00  0.00    -0.290 NA
ATOM      7  S   UNL     1       0.062  -7.445  14.821  1.00  0.00    -0.122 SA
ATOM      8  C   UNL     1      -1.487 -11.137  15.224  1.00  0.00     0.025 C 
ATOM      9  H   UNL     1       0.349 -10.369  13.403  1.00  0.00     0.125 HD
BRANCH   5  10
ATOM     10  C   UNL     1      -1.061  -8.459  17.121  1.00  0.00     0.006 C 
ATOM     11  C   UNL     1      -0.808  -7.221  17.701  1.00  0.00     0.020 C 
ATOM     12  C   UNL     1      -1.685  -9.441  17.884  1.00  0.00     0.024 C 
ATOM     13  C   UNL     1      -1.143  -7.031  19.024  1.00  0.00     0.081 C 
ATOM     14  C   UNL     1      -2.006  -9.146  19.217  1.00  0.00     0.068 C 
ATOM     15  N   UNL     1      -1.723  -7.967  19.788  1.00  0.00    -0.313 NA
ATOM     16  H   UNL     1      -1.092  -8.152  20.581  1.00  0.00     0.122 HD
BRANCH  14  17
ATOM     17  C   UNL     1      -2.761 -10.166  20.104  1.00  0.00     0.076 C 
ATOM     18  C   UNL     1      -3.760  -9.462  21.036  1.00  0.00     0.022 C 
ATOM     19  C   UNL     1      -3.504 -11.187  19.224  1.00  0.00     0.022 C 
BRANCH  17  20
ATOM     20  C   UNL     1      -1.705 -10.980  21.046  1.00  0.00     0.395 C 
ATOM     21  F   UNL     1      -1.491 -12.202  20.562  1.00  0.00    -0.170 F 
ATOM     22  F   UNL     1      -0.522 -10.384  21.134  1.00  0.00    -0.170 F 
ATOM     23  F   UNL     1      -2.152 -11.115  22.290  1.00  0.00    -0.170 F 
ENDBRANCH  17  20
ENDBRANCH  14  17
ENDBRANCH   5  10
ENDBRANCH   1   3
BRANCH   1  24
ATOM     24  C   UNL     1       0.850  -8.945  11.123  1.00  0.00     0.261 C 
BRANCH  24  25
ATOM     25  O   UNL     1      -0.108  -9.339  10.475  1.00  0.00    -0.365 OA
ATOM     26  H   UNL     1      -0.072 -10.326  10.399  1.00  0.00     0.214 HD
ENDBRANCH  24  25
BRANCH  24  27
ATOM     27  N   UNL     1       2.136  -9.328  10.792  1.00  0.00    -0.259 NA
ATOM     28  C   UNL     1       3.225  -8.337  10.807  1.00  0.00     0.104 C 
ATOM     29  C   UNL     1       2.603 -10.671  10.413  1.00  0.00     0.089 C 
ATOM     30  C   UNL     1       4.479  -9.167  10.491  1.00  0.00     0.025 C 
ATOM     31  C   UNL     1       3.967 -10.414   9.810  1.00  0.00     0.017 C 
BRANCH  28  32
ATOM     32  C   UNL     1       3.024  -7.192   9.812  1.00  0.00     0.197 C 
BRANCH  32  33
ATOM     33  O   UNL     1       3.322  -7.341   8.623  1.00  0.00    -0.377 OA
ATOM     34  H   UNL     1       3.875  -8.156   8.523  1.00  0.00     0.212 HD
ENDBRANCH  32  33
BRANCH  32  35
ATOM     35  N   UNL     1       2.593  -6.043  10.307  1.00  0.00    -0.305 NA
ATOM     36  H   UNL     1       3.343  -5.604  10.859  1.00  0.00     0.121 HD
ATOM     37  H   UNL     1       2.322  -5.416   9.536  1.00  0.00     0.121 HD
ENDBRANCH  32  35
ENDBRANCH  28  32
ENDBRANCH  24  27
ENDBRANCH   1  24
TORSDOF 10
ENDMDL
MODEL 3
REMARK VINA RESULT:    -8.486      1.728      2.949
REMARK INTER + INTRA:         -13.885
REMARK INTER:                 -13.026
REMARK INTRA:                  -0.859
REMARK UNBOUND:                -1.182
REMARK SMILES C[C@H]1N[C@@H](N[C@@H](O)N2CCC[C@H]2[C@@H](N)O)S[C@@H]1[C@H]1CCN[C@H](C(C)(C)C(F)(F)F)C1
REMARK SMILES IDX 5 1 4 3 2 4 17 5 3 6 16 7 1 8 18 10 19 11 30 12 20 13 22 14
REMARK SMILES IDX 21 15 23 17 24 18 25 19 26 20 27 21 28 22 29 23 6 24 7 25
REMARK SMILES IDX 8 27 12 28 9 29 11 30 10 31 13 32 15 33 14 35
REMARK H PARENT 5 2 3 9 21 16 7 26 15 34 14 36 14 37
ROOT
ATOM      1  N   UNL     1       0.344  -8.682  13.310  1.00  0.00    -0.255 NA
ATOM      2  H   UNL     1      -0.213  -9.131  12.569  1.00  0.00     0.129 HD
ENDROOT
BRANCH   1   3
ATOM      3  C   UNL     1      -0.366  -8.877  14.479  1.00  0.00     0.185 C 
ATOM      4  C   UNL     1      -1.144  -8.360  16.485  1.00  0.00     0.066 C 
ATOM      5  C   UNL     1      -1.766  -9.597  16.351  1.00  0.00     0.069 C 
ATOM      6  N   UNL     1      -0.363  -7.964  15.417  1.00  0.00    -0.290 NA
ATOM      7  S   UNL     1      -1.301 -10.290  14.815  1.00  0.00    -0.122 SA
ATOM      8  C   UNL     1      -1.270  -7.438  17.654  1.00  0.00     0.025 C 
ATOM      9  H   UNL     1      -0.736  -7.084  15.034  1.00  0.00     0.125 HD
BRANCH   5  10
ATOM     10  C   UNL     1      -2.665 -10.405  17.204  1.00  0.00     0.006 C 
ATOM     11  C   UNL     1      -3.433 -11.436  16.675  1.00  0.00     0.020 C 
ATOM     12  C   UNL     1      -2.730 -10.155  18.571  1.00  0.00     0.024 C 
ATOM     13  C   UNL     1      -4.265 -12.139  17.518  1.00  0.00     0.081 C 
ATOM     14  C   UNL     1      -3.593 -10.938  19.351  1.00  0.00     0.068 C 
ATOM     15  N   UNL     1      -4.365 -11.904  18.834  1.00  0.00    -0.313 NA
ATOM     16  H   UNL     1      -5.345 -11.653  19.028  1.00  0.00     0.122 HD
BRANCH  14  17
ATOM     17  C   UNL     1      -3.666 -10.761  20.888  1.00  0.00     0.076 C 
ATOM     18  C   UNL     1      -4.170  -9.357  21.262  1.00  0.00     0.022 C 
ATOM     19  C   UNL     1      -4.593 -11.825  21.501  1.00  0.00     0.022 C 
BRANCH  17  20
ATOM     20  C   UNL     1      -2.183 -10.937  21.545  1.00  0.00     0.395 C 
ATOM     21  F   UNL     1      -1.519 -11.922  20.942  1.00  0.00    -0.170 F 
ATOM     22  F   UNL     1      -1.436  -9.844  21.440  1.00  0.00    -0.170 F 
ATOM     23  F   UNL     1      -2.245 -11.228  22.839  1.00  0.00    -0.170 F 
ENDBRANCH  17  20
ENDBRANCH  14  17
ENDBRANCH   5  10
ENDBRANCH   1   3
BRANCH   1  24
ATOM     24  C   UNL     1       0.706  -7.426  12.802  1.00  0.00     0.261 C 
BRANCH  24  25
ATOM     25  O   UNL     1       0.033  -6.428  13.015  1.00  0.00    -0.365 OA
ATOM     26  H   UNL     1       0.423  -5.923  13.772  1.00  0.00     0.214 HD
ENDBRANCH  24  25
BRANCH  24  27
ATOM     27  N   UNL     1       1.861  -7.355  12.046  1.00  0.00    -0.259 NA
ATOM     28  C   UNL     1       1.790  -7.492  10.582  1.00  0.00     0.104 C 
ATOM     29  C   UNL     1       3.235  -7.139  12.525  1.00  0.00     0.089 C 
ATOM     30  C   UNL     1       3.238  -7.254  10.123  1.00  0.00     0.025 C 
ATOM     31  C   UNL     1       4.090  -7.530  11.340  1.00  0.00     0.017 C 
BRANCH  28  32
ATOM     32  C   UNL     1       1.253  -8.847  10.119  1.00  0.00     0.197 C 
BRANCH  32  33
ATOM     33  O   UNL     1       0.070  -9.146  10.311  1.00  0.00    -0.377 OA
ATOM     34  H   UNL     1      -0.493  -8.338  10.212  1.00  0.00     0.212 HD
ENDBRANCH  32  33
BRANCH  32  35
ATOM     35  N   UNL     1       2.129  -9.683   9.585  1.00  0.00    -0.305 NA
ATOM     36  H   UNL     1       1.850 -10.652   9.793  1.00  0.00     0.121 HD
ATOM     37  H   UNL     1       2.156  -9.545   8.564  1.00  0.00     0.121 HD
ENDBRANCH  32  35
ENDBRANCH  28  32
ENDBRANCH  24  27
ENDBRANCH   1  24
TORSDOF 10
ENDMDL
MODEL 4
REMARK VINA RESULT:    -8.378      1.246      2.364
REMARK INTER + INTRA:         -13.723
REMARK INTER:                 -12.359
REMARK INTRA:                  -1.363
REMARK UNBOUND:                -1.182
REMARK SMILES C[C@H]1N[C@@H](N[C@@H](O)N2CCC[C@H]2[C@@H](N)O)S[C@@H]1[C@H]1CCN[C@H](C(C)(C)C(F)(F)F)C1
REMARK SMILES IDX 5 1 4 3 2 4 17 5 3 6 16 7 1 8 18 10 19 11 30 12 20 13 22 14
REMARK SMILES IDX 21 15 23 17 24 18 25 19 26 20 27 21 28 22 29 23 6 24 7 25
REMARK SMILES IDX 8 27 12 28 9 29 11 30 10 31 13 32 15 33 14 35
REMARK H PARENT 5 2 3 9 21 16 7 26 15 34 14 36 14 37
ROOT
ATOM      1  N   UNL     1       0.612  -6.915  14.733  1.00  0.00    -0.255 NA
ATOM      2  H   UNL     1       1.595  -7.133  14.950  1.00  0.00     0.129 HD
ENDROOT
BRANCH   1   3
ATOM      3  C   UNL     1      -0.131  -7.915  15.329  1.00  0.00     0.185 C 
ATOM      4  C   UNL     1      -1.086  -9.904  15.492  1.00  0.00     0.066 C 
ATOM      5  C   UNL     1      -1.459  -9.410  16.738  1.00  0.00     0.069 C 
ATOM      6  N   UNL     1      -0.331  -9.051  14.712  1.00  0.00    -0.290 NA
ATOM      7  S   UNL     1      -0.849  -7.780  16.895  1.00  0.00    -0.122 SA
ATOM      8  C   UNL     1      -1.409 -11.261  14.955  1.00  0.00     0.025 C 
ATOM      9  H   UNL     1       0.578  -9.492  14.513  1.00  0.00     0.125 HD
BRANCH   5  10
ATOM     10  C   UNL     1      -2.242  -9.943  17.875  1.00  0.00     0.006 C 
ATOM     11  C   UNL     1      -3.349 -10.759  17.673  1.00  0.00     0.020 C 
ATOM     12  C   UNL     1      -1.853  -9.652  19.179  1.00  0.00     0.024 C 
ATOM     13  C   UNL     1      -4.047 -11.209  18.772  1.00  0.00     0.081 C 
ATOM     14  C   UNL     1      -2.617 -10.173  20.234  1.00  0.00     0.068 C 
ATOM     15  N   UNL     1      -3.709 -10.924  20.037  1.00  0.00    -0.313 NA
ATOM     16  H   UNL     1      -4.505 -10.429  20.465  1.00  0.00     0.122 HD
BRANCH  14  17
ATOM     17  C   UNL     1      -2.205  -9.945  21.708  1.00  0.00     0.076 C 
ATOM     18  C   UNL     1      -1.904  -8.463  21.980  1.00  0.00     0.022 C 
ATOM     19  C   UNL     1      -3.321 -10.428  22.651  1.00  0.00     0.022 C 
BRANCH  17  20
ATOM     20  C   UNL     1      -0.850 -10.788  22.049  1.00  0.00     0.395 C 
ATOM     21  F   UNL     1       0.233 -10.077  21.739  1.00  0.00    -0.170 F 
ATOM     22  F   UNL     1      -0.748 -11.111  23.333  1.00  0.00    -0.170 F 
ATOM     23  F   UNL     1      -0.789 -11.928  21.369  1.00  0.00    -0.170 F 
ENDBRANCH  17  20
ENDBRANCH  14  17
ENDBRANCH   5  10
ENDBRANCH   1   3
BRANCH   1  24
ATOM     24  C   UNL     1       0.585  -6.616  13.362  1.00  0.00     0.261 C 
BRANCH  24  25
ATOM     25  O   UNL     1      -0.355  -6.024  12.853  1.00  0.00    -0.365 OA
ATOM     26  H   UNL     1      -0.950  -6.676  12.402  1.00  0.00     0.214 HD
ENDBRANCH  24  25
BRANCH  24  27
ATOM     27  N   UNL     1       1.667  -7.018  12.603  1.00  0.00    -0.259 NA
ATOM     28  C   UNL     1       1.450  -7.687  11.310  1.00  0.00     0.104 C 
ATOM     29  C   UNL     1       3.094  -6.852  12.918  1.00  0.00     0.089 C 
ATOM     30  C   UNL     1       2.869  -7.870  10.750  1.00  0.00     0.025 C 
ATOM     31  C   UNL     1       3.782  -7.791  11.952  1.00  0.00     0.017 C 
BRANCH  28  32
ATOM     32  C   UNL     1       0.700  -9.016  11.427  1.00  0.00     0.197 C 
BRANCH  32  33
ATOM     33  O   UNL     1      -0.464  -9.039  11.839  1.00  0.00    -0.377 OA
ATOM     34  H   UNL     1      -0.581  -9.807  12.452  1.00  0.00     0.212 HD
ENDBRANCH  32  33
BRANCH  32  35
ATOM     35  N   UNL     1       1.384 -10.111  11.139  1.00  0.00    -0.305 NA
ATOM     36  H   UNL     1       1.060 -10.885  11.737  1.00  0.00     0.121 HD
ATOM     37  H   UNL     1       1.238 -10.358  10.150  1.00  0.00     0.121 HD
ENDBRANCH  32  35
ENDBRANCH  28  32
ENDBRANCH  24  27
ENDBRANCH   1  24
TORSDOF 10
ENDMDL
MODEL 5
REMARK VINA RESULT:    -8.297      1.976      2.722
REMARK INTER + INTRA:         -13.602
REMARK INTER:                 -12.655
REMARK INTRA:                  -0.947
REMARK UNBOUND:                -1.182
REMARK SMILES C[C@H]1N[C@@H](N[C@@H](O)N2CCC[C@H]2[C@@H](N)O)S[C@@H]1[C@H]1CCN[C@H](C(C)(C)C(F)(F)F)C1
REMARK SMILES IDX 5 1 4 3 2 4 17 5 3 6 16 7 1 8 18 10 19 11 30 12 20 13 22 14
REMARK SMILES IDX 21 15 23 17 24 18 25 19 26 20 27 21 28 22 29 23 6 24 7 25
REMARK SMILES IDX 8 27 12 28 9 29 11 30 10 31 13 32 15 33 14 35
REMARK H PARENT 5 2 3 9 21 16 7 26 15 34 14 36 14 37
ROOT
ATOM      1  N   UNL     1      -0.250  -9.287  12.427  1.00  0.00    -0.255 NA
ATOM      2  H   UNL     1      -1.085  -9.012  11.890  1.00  0.00     0.129 HD
ENDROOT
BRANCH   1   3
ATOM      3  C   UNL     1      -0.667  -9.379  13.741  1.00  0.00     0.185 C 
ATOM      4  C   UNL     1      -0.749  -8.827  15.882  1.00  0.00     0.066 C 
ATOM      5  C   UNL     1      -1.686  -9.854  15.913  1.00  0.00     0.069 C 
ATOM      6  N   UNL     1      -0.188  -8.566  14.648  1.00  0.00    -0.290 NA
ATOM      7  S   UNL     1      -1.824 -10.530  14.307  1.00  0.00    -0.122 SA
ATOM      8  C   UNL     1      -0.328  -7.989  17.045  1.00  0.00     0.025 C 
ATOM      9  H   UNL     1      -0.401  -7.595  14.378  1.00  0.00     0.125 HD
BRANCH   5  10
ATOM     10  C   UNL     1      -2.520 -10.467  16.970  1.00  0.00     0.006 C 
ATOM     11  C   UNL     1      -3.396 -11.510  16.689  1.00  0.00     0.020 C 
ATOM     12  C   UNL     1      -2.413 -10.018  18.283  1.00  0.00     0.024 C 
ATOM     13  C   UNL     1      -4.159 -12.026  17.713  1.00  0.00     0.081 C 
ATOM     14  C   UNL     1      -3.218 -10.620  19.261  1.00  0.00     0.068 C 
ATOM     15  N   UNL     1      -4.093 -11.596  18.981  1.00  0.00    -0.313 NA
ATOM     16  H   UNL     1      -5.029 -11.253  19.240  1.00  0.00     0.122 HD
BRANCH  14  17
ATOM     17  C   UNL     1      -3.103 -10.217  20.751  1.00  0.00     0.076 C 
ATOM     18  C   UNL     1      -2.986  -8.692  20.908  1.00  0.00     0.022 C 
ATOM     19  C   UNL     1      -4.326 -10.726  21.534  1.00  0.00     0.022 C 
BRANCH  17  20
ATOM     20  C   UNL     1      -1.764 -10.879  21.410  1.00  0.00     0.395 C 
ATOM     21  F   UNL     1      -1.945 -11.102  22.711  1.00  0.00    -0.170 F 
ATOM     22  F   UNL     1      -1.435 -12.041  20.858  1.00  0.00    -0.170 F 
ATOM     23  F   UNL     1      -0.705 -10.087  21.282  1.00  0.00    -0.170 F 
ENDBRANCH  17  20
ENDBRANCH  14  17
ENDBRANCH   5  10
ENDBRANCH   1   3
BRANCH   1  24
ATOM     24  C   UNL     1       0.781  -8.448  11.979  1.00  0.00     0.261 C 
BRANCH  24  25
ATOM     25  O   UNL     1       0.789  -7.252  12.227  1.00  0.00    -0.365 OA
ATOM     26  H   UNL     1       0.860  -6.740  11.382  1.00  0.00     0.214 HD
ENDBRANCH  24  25
BRANCH  24  27
ATOM     27  N   UNL     1       1.796  -9.027  11.242  1.00  0.00    -0.259 NA
ATOM     28  C   UNL     1       2.950  -8.218  10.816  1.00  0.00     0.104 C 
ATOM     29  C   UNL     1       1.900 -10.428  10.804  1.00  0.00     0.089 C 
ATOM     30  C   UNL     1       3.876  -9.235  10.131  1.00  0.00     0.025 C 
ATOM     31  C   UNL     1       2.982 -10.391   9.748  1.00  0.00     0.017 C 
BRANCH  28  32
ATOM     32  C   UNL     1       2.575  -7.061   9.888  1.00  0.00     0.197 C 
BRANCH  32  33
ATOM     33  O   UNL     1       2.177  -7.286   8.741  1.00  0.00    -0.377 OA
ATOM     34  H   UNL     1       2.931  -7.614   8.190  1.00  0.00     0.212 HD
ENDBRANCH  32  33
BRANCH  32  35
ATOM     35  N   UNL     1       2.771  -5.838  10.355  1.00  0.00    -0.305 NA
ATOM     36  H   UNL     1       2.254  -5.721  11.237  1.00  0.00     0.121 HD
ATOM     37  H   UNL     1       3.776  -5.692  10.524  1.00  0.00     0.121 HD
ENDBRANCH  32  35
ENDBRANCH  28  32
ENDBRANCH  24  27
ENDBRANCH   1  24
TORSDOF 10
ENDMDL
MODEL 6
REMARK VINA RESULT:    -7.977      2.391      3.909
REMARK INTER + INTRA:         -13.124
REMARK INTER:                 -12.783
REMARK INTRA:                  -0.340
REMARK UNBOUND:                -1.182
REMARK SMILES C[C@H]1N[C@@H](N[C@@H](O)N2CCC[C@H]2[C@@H](N)O)S[C@@H]1[C@H]1CCN[C@H](C(C)(C)C(F)(F)F)C1
REMARK SMILES IDX 5 1 4 3 2 4 17 5 3 6 16 7 1 8 18 10 19 11 30 12 20 13 22 14
REMARK SMILES IDX 21 15 23 17 24 18 25 19 26 20 27 21 28 22 29 23 6 24 7 25
REMARK SMILES IDX 8 27 12 28 9 29 11 30 10 31 13 32 15 33 14 35
REMARK H PARENT 5 2 3 9 21 16 7 26 15 34 14 36 14 37
ROOT
ATOM      1  N   UNL     1       0.845  -7.228  12.600  1.00  0.00    -0.255 NA
ATOM      2  H   UNL     1       0.454  -6.280  12.500  1.00  0.00     0.129 HD
ENDROOT
BRANCH   1   3
ATOM      3  C   UNL     1       0.302  -7.732  13.767  1.00  0.00     0.185 C 
ATOM      4  C   UNL     1      -0.315  -7.699  15.892  1.00  0.00     0.066 C 
ATOM      5  C   UNL     1      -0.765  -8.978  15.581  1.00  0.00     0.069 C 
ATOM      6  N   UNL     1       0.279  -7.006  14.856  1.00  0.00    -0.290 NA
ATOM      7  S   UNL     1      -0.380  -9.313  13.909  1.00  0.00    -0.122 SA
ATOM      8  C   UNL     1      -0.440  -7.024  17.219  1.00  0.00     0.025 C 
ATOM      9  H   UNL     1      -0.254  -6.144  14.676  1.00  0.00     0.125 HD
BRANCH   5  10
ATOM     10  C   UNL     1      -1.441 -10.054  16.340  1.00  0.00     0.006 C 
ATOM     11  C   UNL     1      -1.673 -11.303  15.775  1.00  0.00     0.020 C 
ATOM     12  C   UNL     1      -1.833  -9.830  17.656  1.00  0.00     0.024 C 
ATOM     13  C   UNL     1      -2.323 -12.257  16.526  1.00  0.00     0.081 C 
ATOM     14  C   UNL     1      -2.471 -10.870  18.347  1.00  0.00     0.068 C 
ATOM     15  N   UNL     1      -2.732 -12.060  17.788  1.00  0.00    -0.313 NA
ATOM     16  H   UNL     1      -3.753 -12.192  17.805  1.00  0.00     0.122 HD
BRANCH  14  17
ATOM     17  C   UNL     1      -2.873 -10.716  19.834  1.00  0.00     0.076 C 
ATOM     18  C   UNL     1      -1.941 -11.526  20.749  1.00  0.00     0.022 C 
ATOM     19  C   UNL     1      -2.839  -9.232  20.241  1.00  0.00     0.022 C 
BRANCH  17  20
ATOM     20  C   UNL     1      -4.389 -11.273  20.066  1.00  0.00     0.395 C 
ATOM     21  F   UNL     1      -4.380 -12.326  20.883  1.00  0.00    -0.170 F 
ATOM     22  F   UNL     1      -5.198 -10.369  20.607  1.00  0.00    -0.170 F 
ATOM     23  F   UNL     1      -4.958 -11.654  18.928  1.00  0.00    -0.170 F 
ENDBRANCH  17  20
ENDBRANCH  14  17
ENDBRANCH   5  10
ENDBRANCH   1   3
BRANCH   1  24
ATOM     24  C   UNL     1       2.220  -7.098  12.357  1.00  0.00     0.261 C 
BRANCH  24  25
ATOM     25  O   UNL     1       3.000  -6.769  13.237  1.00  0.00    -0.365 OA
ATOM     26  H   UNL     1       2.520  -6.720  14.102  1.00  0.00     0.214 HD
ENDBRANCH  24  25
BRANCH  24  27
ATOM     27  N   UNL     1       2.665  -7.359  11.075  1.00  0.00    -0.259 NA
ATOM     28  C   UNL     1       1.718  -7.827  10.049  1.00  0.00     0.104 C 
ATOM     29  C   UNL     1       4.034  -7.218  10.555  1.00  0.00     0.089 C 
ATOM     30  C   UNL     1       2.569  -7.895   8.771  1.00  0.00     0.025 C 
ATOM     31  C   UNL     1       3.999  -7.986   9.251  1.00  0.00     0.017 C 
BRANCH  28  32
ATOM     32  C   UNL     1       1.068  -9.171  10.383  1.00  0.00     0.197 C 
BRANCH  32  33
ATOM     33  O   UNL     1      -0.161  -9.270  10.440  1.00  0.00    -0.377 OA
ATOM     34  H   UNL     1      -0.527  -8.525  10.979  1.00  0.00     0.212 HD
ENDBRANCH  32  33
BRANCH  32  35
ATOM     35  N   UNL     1       1.886 -10.170  10.672  1.00  0.00    -0.305 NA
ATOM     36  H   UNL     1       1.336 -11.023  10.850  1.00  0.00     0.121 HD
ATOM     37  H   UNL     1       2.524 -10.332   9.880  1.00  0.00     0.121 HD
ENDBRANCH  32  35
ENDBRANCH  28  32
ENDBRANCH  24  27
ENDBRANCH   1  24
TORSDOF 10
ENDMDL
MODEL 7
REMARK VINA RESULT:    -7.941      2.075      3.285
REMARK INTER + INTRA:         -13.069
REMARK INTER:                 -11.660
REMARK INTRA:                  -1.409
REMARK UNBOUND:                -1.182
REMARK SMILES C[C@H]1N[C@@H](N[C@@H](O)N2CCC[C@H]2[C@@H](N)O)S[C@@H]1[C@H]1CCN[C@H](C(C)(C)C(F)(F)F)C1
REMARK SMILES IDX 5 1 4 3 2 4 17 5 3 6 16 7 1 8 18 10 19 11 30 12 20 13 22 14
REMARK SMILES IDX 21 15 23 17 24 18 25 19 26 20 27 21 28 22 29 23 6 24 7 25
REMARK SMILES IDX 8 27 12 28 9 29 11 30 10 31 13 32 15 33 14 35
REMARK H PARENT 5 2 3 9 21 16 7 26 15 34 14 36 14 37
ROOT
ATOM      1  N   UNL     1       1.312  -6.486  14.503  1.00  0.00    -0.255 NA
ATOM      2  H   UNL     1       2.228  -6.950  14.583  1.00  0.00     0.129 HD
ENDROOT
BRANCH   1   3
ATOM      3  C   UNL     1       0.512  -7.073  15.464  1.00  0.00     0.185 C 
ATOM      4  C   UNL     1      -0.869  -8.586  16.300  1.00  0.00     0.066 C 
ATOM      5  C   UNL     1      -0.745  -7.791  17.435  1.00  0.00     0.069 C 
ATOM      6  N   UNL     1      -0.147  -8.171  15.199  1.00  0.00    -0.290 NA
ATOM      7  S   UNL     1       0.305  -6.445  17.060  1.00  0.00    -0.122 SA
ATOM      8  C   UNL     1      -1.682  -9.835  16.189  1.00  0.00     0.025 C 
ATOM      9  H   UNL     1       0.519  -8.910  14.933  1.00  0.00     0.125 HD
BRANCH   5  10
ATOM     10  C   UNL     1      -1.309  -7.838  18.802  1.00  0.00     0.006 C 
ATOM     11  C   UNL     1      -1.991  -6.753  19.343  1.00  0.00     0.020 C 
ATOM     12  C   UNL     1      -1.185  -8.998  19.561  1.00  0.00     0.024 C 
ATOM     13  C   UNL     1      -2.476  -6.853  20.628  1.00  0.00     0.081 C 
ATOM     14  C   UNL     1      -1.730  -9.010  20.853  1.00  0.00     0.068 C 
ATOM     15  N   UNL     1      -2.350  -7.949  21.390  1.00  0.00    -0.313 NA
ATOM     16  H   UNL     1      -1.824  -7.679  22.234  1.00  0.00     0.122 HD
BRANCH  14  17
ATOM     17  C   UNL     1      -1.689 -10.286  21.728  1.00  0.00     0.076 C 
ATOM     18  C   UNL     1      -2.940 -10.393  22.616  1.00  0.00     0.022 C 
ATOM     19  C   UNL     1      -1.577 -11.536  20.838  1.00  0.00     0.022 C 
BRANCH  17  20
ATOM     20  C   UNL     1      -0.392 -10.247  22.718  1.00  0.00     0.395 C 
ATOM     21  F   UNL     1       0.700  -9.886  22.044  1.00  0.00    -0.170 F 
ATOM     22  F   UNL     1      -0.530  -9.388  23.721  1.00  0.00    -0.170 F 
ATOM     23  F   UNL     1      -0.149 -11.432  23.267  1.00  0.00    -0.170 F 
ENDBRANCH  17  20
ENDBRANCH  14  17
ENDBRANCH   5  10
ENDBRANCH   1   3
BRANCH   1  24
ATOM     24  C   UNL     1       1.018  -6.465  13.131  1.00  0.00     0.261 C 
BRANCH  24  25
ATOM     25  O   UNL     1      -0.011  -5.965  12.702  1.00  0.00    -0.365 OA
ATOM     26  H   UNL     1       0.019  -5.945  11.713  1.00  0.00     0.214 HD
ENDBRANCH  24  25
BRANCH  24  27
ATOM     27  N   UNL     1       1.942  -7.034  12.275  1.00  0.00    -0.259 NA
ATOM     28  C   UNL     1       1.486  -7.871  11.153  1.00  0.00     0.104 C 
ATOM     29  C   UNL     1       3.407  -6.905  12.322  1.00  0.00     0.089 C 
ATOM     30  C   UNL     1       2.782  -8.213  10.402  1.00  0.00     0.025 C 
ATOM     31  C   UNL     1       3.889  -8.013  11.411  1.00  0.00     0.017 C 
BRANCH  28  32
ATOM     32  C   UNL     1       0.725  -9.123  11.594  1.00  0.00     0.197 C 
BRANCH  32  33
ATOM     33  O   UNL     1       1.179 -10.245  11.350  1.00  0.00    -0.377 OA
ATOM     34  H   UNL     1       2.037 -10.154  10.865  1.00  0.00     0.212 HD
ENDBRANCH  32  33
BRANCH  32  35
ATOM     35  N   UNL     1      -0.451  -8.932  12.170  1.00  0.00    -0.305 NA
ATOM     36  H   UNL     1      -0.332  -8.903  13.192  1.00  0.00     0.121 HD
ATOM     37  H   UNL     1      -0.851  -8.040  11.845  1.00  0.00     0.121 HD
ENDBRANCH  32  35
ENDBRANCH  28  32
ENDBRANCH  24  27
ENDBRANCH   1  24
TORSDOF 10
ENDMDL
MODEL 8
REMARK VINA RESULT:    -7.855      2.203      3.617
REMARK INTER + INTRA:         -12.941
REMARK INTER:                 -11.714
REMARK INTRA:                  -1.227
REMARK UNBOUND:                -1.182
REMARK SMILES C[C@H]1N[C@@H](N[C@@H](O)N2CCC[C@H]2[C@@H](N)O)S[C@@H]1[C@H]1CCN[C@H](C(C)(C)C(F)(F)F)C1
REMARK SMILES IDX 5 1 4 3 2 4 17 5 3 6 16 7 1 8 18 10 19 11 30 12 20 13 22 14
REMARK SMILES IDX 21 15 23 17 24 18 25 19 26 20 27 21 28 22 29 23 6 24 7 25
REMARK SMILES IDX 8 27 12 28 9 29 11 30 10 31 13 32 15 33 14 35
REMARK H PARENT 5 2 3 9 21 16 7 26 15 34 14 36 14 37
ROOT
ATOM      1  N   UNL     1       1.028  -6.826  12.845  1.00  0.00    -0.255 NA
ATOM      2  H   UNL     1       0.917  -5.808  12.959  1.00  0.00     0.129 HD
ENDROOT
BRANCH   1   3
ATOM      3  C   UNL     1       0.390  -7.392  13.932  1.00  0.00     0.185 C 
ATOM      4  C   UNL     1      -0.583  -9.004  15.093  1.00  0.00     0.066 C 
ATOM      5  C   UNL     1      -0.664  -8.000  16.053  1.00  0.00     0.069 C 
ATOM      6  N   UNL     1       0.020  -8.647  13.905  1.00  0.00    -0.290 NA
ATOM      7  S   UNL     1       0.028  -6.539  15.390  1.00  0.00    -0.122 SA
ATOM      8  C   UNL     1      -1.066 -10.410  15.252  1.00  0.00     0.025 C 
ATOM      9  H   UNL     1       0.848  -9.241  13.755  1.00  0.00     0.125 HD
BRANCH   5  10
ATOM     10  C   UNL     1      -1.207  -7.919  17.428  1.00  0.00     0.006 C 
ATOM     11  C   UNL     1      -1.264  -6.711  18.114  1.00  0.00     0.020 C 
ATOM     12  C   UNL     1      -1.698  -9.065  18.046  1.00  0.00     0.024 C 
ATOM     13  C   UNL     1      -1.762  -6.705  19.398  1.00  0.00     0.081 C 
ATOM     14  C   UNL     1      -2.204  -8.954  19.349  1.00  0.00     0.068 C 
ATOM     15  N   UNL     1      -2.220  -7.797  20.025  1.00  0.00    -0.313 NA
ATOM     16  H   UNL     1      -1.649  -7.928  20.873  1.00  0.00     0.122 HD
BRANCH  14  17
ATOM     17  C   UNL     1      -2.829 -10.172  20.072  1.00  0.00     0.076 C 
ATOM     18  C   UNL     1      -3.999  -9.745  20.973  1.00  0.00     0.022 C 
ATOM     19  C   UNL     1      -3.318 -11.207  19.043  1.00  0.00     0.022 C 
BRANCH  17  20
ATOM     20  C   UNL     1      -1.716 -10.889  21.026  1.00  0.00     0.395 C 
ATOM     21  F   UNL     1      -1.468 -12.129  20.605  1.00  0.00    -0.170 F 
ATOM     22  F   UNL     1      -0.555 -10.245  21.044  1.00  0.00    -0.170 F 
ATOM     23  F   UNL     1      -2.121 -10.968  22.289  1.00  0.00    -0.170 F 
ENDBRANCH  17  20
ENDBRANCH  14  17
ENDBRANCH   5  10
ENDBRANCH   1   3
BRANCH   1  24
ATOM     24  C   UNL     1       2.379  -7.026  12.525  1.00  0.00     0.261 C 
BRANCH  24  25
ATOM     25  O   UNL     1       3.242  -7.084  13.389  1.00  0.00    -0.365 OA
ATOM     26  H   UNL     1       2.936  -6.597  14.194  1.00  0.00     0.214 HD
ENDBRANCH  24  25
BRANCH  24  27
ATOM     27  N   UNL     1       2.703  -7.155  11.188  1.00  0.00    -0.259 NA
ATOM     28  C   UNL     1       1.702  -7.662  10.235  1.00  0.00     0.104 C 
ATOM     29  C   UNL     1       3.982  -6.828  10.539  1.00  0.00     0.089 C 
ATOM     30  C   UNL     1       2.406  -7.555   8.874  1.00  0.00     0.025 C 
ATOM     31  C   UNL     1       3.882  -7.513   9.194  1.00  0.00     0.017 C 
BRANCH  28  32
ATOM     32  C   UNL     1       1.239  -9.089  10.536  1.00  0.00     0.197 C 
BRANCH  32  33
ATOM     33  O   UNL     1       2.047 -10.022  10.517  1.00  0.00    -0.377 OA
ATOM     34  H   UNL     1       1.800 -10.685  11.209  1.00  0.00     0.212 HD
ENDBRANCH  32  33
BRANCH  32  35
ATOM     35  N   UNL     1      -0.058  -9.263  10.736  1.00  0.00    -0.305 NA
ATOM     36  H   UNL     1      -0.447  -8.433  11.205  1.00  0.00     0.121 HD
ATOM     37  H   UNL     1      -0.530  -9.399   9.831  1.00  0.00     0.121 HD
ENDBRANCH  32  35
ENDBRANCH  28  32
ENDBRANCH  24  27
ENDBRANCH   1  24
TORSDOF 10
ENDMDL
MODEL 9
REMARK VINA RESULT:    -7.771      2.185      3.943
REMARK INTER + INTRA:         -12.814
REMARK INTER:                 -11.905
REMARK INTRA:                  -0.909
REMARK UNBOUND:                -1.182
REMARK SMILES C[C@H]1N[C@@H](N[C@@H](O)N2CCC[C@H]2[C@@H](N)O)S[C@@H]1[C@H]1CCN[C@H](C(C)(C)C(F)(F)F)C1
REMARK SMILES IDX 5 1 4 3 2 4 17 5 3 6 16 7 1 8 18 10 19 11 30 12 20 13 22 14
REMARK SMILES IDX 21 15 23 17 24 18 25 19 26 20 27 21 28 22 29 23 6 24 7 25
REMARK SMILES IDX 8 27 12 28 9 29 11 30 10 31 13 32 15 33 14 35
REMARK H PARENT 5 2 3 9 21 16 7 26 15 34 14 36 14 37
ROOT
ATOM      1  N   UNL     1       0.571  -7.724  13.650  1.00  0.00    -0.255 NA
ATOM      2  H   UNL     1      -0.158  -8.326  13.242  1.00  0.00     0.129 HD
ENDROOT
BRANCH   1   3
ATOM      3  C   UNL     1       0.062  -7.290  14.860  1.00  0.00     0.185 C 
ATOM      4  C   UNL     1      -0.556  -5.807  16.381  1.00  0.00     0.066 C 
ATOM      5  C   UNL     1      -0.925  -6.956  17.072  1.00  0.00     0.069 C 
ATOM      6  N   UNL     1      -0.007  -6.012  15.131  1.00  0.00    -0.290 NA
ATOM      7  S   UNL     1      -0.519  -8.348  16.096  1.00  0.00    -0.122 SA
ATOM      8  C   UNL     1      -0.723  -4.402  16.862  1.00  0.00     0.025 C 
ATOM      9  H   UNL     1      -0.594  -5.547  14.424  1.00  0.00     0.125 HD
BRANCH   5  10
ATOM     10  C   UNL     1      -1.532  -7.222  18.396  1.00  0.00     0.006 C 
ATOM     11  C   UNL     1      -1.704  -6.207  19.330  1.00  0.00     0.020 C 
ATOM     12  C   UNL     1      -1.967  -8.505  18.711  1.00  0.00     0.024 C 
ATOM     13  C   UNL     1      -2.258  -6.522  20.552  1.00  0.00     0.081 C 
ATOM     14  C   UNL     1      -2.537  -8.723  19.974  1.00  0.00     0.068 C 
ATOM     15  N   UNL     1      -2.664  -7.754  20.890  1.00  0.00    -0.313 NA
ATOM     16  H   UNL     1      -2.123  -8.039  21.719  1.00  0.00     0.122 HD
BRANCH  14  17
ATOM     17  C   UNL     1      -3.104 -10.109  20.368  1.00  0.00     0.076 C 
ATOM     18  C   UNL     1      -4.366  -9.967  21.235  1.00  0.00     0.022 C 
ATOM     19  C   UNL     1      -3.431 -10.927  19.107  1.00  0.00     0.022 C 
BRANCH  17  20
ATOM     20  C   UNL     1      -2.004 -10.938  21.243  1.00  0.00     0.395 C 
ATOM     21  F   UNL     1      -1.647 -12.054  20.608  1.00  0.00    -0.170 F 
ATOM     22  F   UNL     1      -0.892 -10.247  21.468  1.00  0.00    -0.170 F 
ATOM     23  F   UNL     1      -2.477 -11.288  22.434  1.00  0.00    -0.170 F 
ENDBRANCH  17  20
ENDBRANCH  14  17
ENDBRANCH   5  10
ENDBRANCH   1   3
BRANCH   1  24
ATOM     24  C   UNL     1       0.984  -6.874  12.613  1.00  0.00     0.261 C 
BRANCH  24  25
ATOM     25  O   UNL     1       0.379  -5.846  12.346  1.00  0.00    -0.365 OA
ATOM     26  H   UNL     1      -0.464  -5.815  12.864  1.00  0.00     0.214 HD
ENDBRANCH  24  25
BRANCH  24  27
ATOM     27  N   UNL     1       2.108  -7.243  11.899  1.00  0.00    -0.259 NA
ATOM     28  C   UNL     1       1.963  -7.914  10.597  1.00  0.00     0.104 C 
ATOM     29  C   UNL     1       3.516  -7.038  12.274  1.00  0.00     0.089 C 
ATOM     30  C   UNL     1       3.410  -8.055  10.096  1.00  0.00     0.025 C 
ATOM     31  C   UNL     1       4.269  -7.955  11.335  1.00  0.00     0.017 C 
BRANCH  28  32
ATOM     32  C   UNL     1       1.247  -9.263  10.680  1.00  0.00     0.197 C 
BRANCH  32  33
ATOM     33  O   UNL     1       1.897 -10.310  10.744  1.00  0.00    -0.377 OA
ATOM     34  H   UNL     1       1.434 -11.018  10.229  1.00  0.00     0.212 HD
ENDBRANCH  32  33
BRANCH  32  35
ATOM     35  N   UNL     1      -0.074  -9.239  10.605  1.00  0.00    -0.305 NA
ATOM     36  H   UNL     1      -0.397  -8.263  10.550  1.00  0.00     0.121 HD
ATOM     37  H   UNL     1      -0.380  -9.750   9.765  1.00  0.00     0.121 HD
ENDBRANCH  32  35
ENDBRANCH  28  32
ENDBRANCH  24  27
ENDBRANCH   1  24
TORSDOF 10
ENDMDL
MODEL 10
REMARK VINA RESULT:    -7.760      3.450      5.191
REMARK INTER + INTRA:         -12.798
REMARK INTER:                 -11.861
REMARK INTRA:                  -0.937
REMARK UNBOUND:                -1.182
REMARK SMILES C[C@H]1N[C@@H](N[C@@H](O)N2CCC[C@H]2[C@@H](N)O)S[C@@H]1[C@H]1CCN[C@H](C(C)(C)C(F)(F)F)C1
REMARK SMILES IDX 5 1 4 3 2 4 17 5 3 6 16 7 1 8 18 10 19 11 30 12 20 13 22 14
REMARK SMILES IDX 21 15 23 17 24 18 25 19 26 20 27 21 28 22 29 23 6 24 7 25
REMARK SMILES IDX 8 27 12 28 9 29 11 30 10 31 13 32 15 33 14 35
REMARK H PARENT 5 2 3 9 21 16 7 26 15 34 14 36 14 37
ROOT
ATOM      1  N   UNL     1       1.340  -6.521  12.413  1.00  0.00    -0.255 NA
ATOM      2  H   UNL     1       1.405  -5.504  12.257  1.00  0.00     0.129 HD
ENDROOT
BRANCH   1   3
ATOM      3  C   UNL     1       0.677  -6.671  13.615  1.00  0.00     0.185 C 
ATOM      4  C   UNL     1      -0.193  -6.019  15.543  1.00  0.00     0.066 C 
ATOM      5  C   UNL     1      -0.564  -7.359  15.608  1.00  0.00     0.069 C 
ATOM      6  N   UNL     1       0.501  -5.646  14.409  1.00  0.00    -0.290 NA
ATOM      7  S   UNL     1       0.031  -8.171  14.179  1.00  0.00    -0.122 SA
ATOM      8  C   UNL     1      -0.497  -4.975  16.567  1.00  0.00     0.025 C 
ATOM      9  H   UNL     1      -0.033  -4.920  13.911  1.00  0.00     0.125 HD
BRANCH   5  10
ATOM     10  C   UNL     1      -1.293  -8.187  16.593  1.00  0.00     0.006 C 
ATOM     11  C   UNL     1      -1.572  -7.716  17.871  1.00  0.00     0.020 C 
ATOM     12  C   UNL     1      -1.739  -9.456  16.235  1.00  0.00     0.024 C 
ATOM     13  C   UNL     1      -2.238  -8.542  18.749  1.00  0.00     0.081 C 
ATOM     14  C   UNL     1      -2.426 -10.215  17.193  1.00  0.00     0.068 C 
ATOM     15  N   UNL     1      -2.657  -9.777  18.438  1.00  0.00    -0.313 NA
ATOM     16  H   UNL     1      -2.196 -10.431  19.086  1.00  0.00     0.122 HD
BRANCH  14  17
ATOM     17  C   UNL     1      -3.009 -11.607  16.844  1.00  0.00     0.076 C 
ATOM     18  C   UNL     1      -1.898 -12.663  16.733  1.00  0.00     0.022 C 
ATOM     19  C   UNL     1      -4.029 -12.038  17.912  1.00  0.00     0.022 C 
BRANCH  17  20
ATOM     20  C   UNL     1      -3.772 -11.550  15.403  1.00  0.00     0.395 C 
ATOM     21  F   UNL     1      -2.891 -11.594  14.405  1.00  0.00    -0.170 F 
ATOM     22  F   UNL     1      -4.615 -12.560  15.222  1.00  0.00    -0.170 F 
ATOM     23  F   UNL     1      -4.483 -10.437  15.261  1.00  0.00    -0.170 F 
ENDBRANCH  17  20
ENDBRANCH  14  17
ENDBRANCH   5  10
ENDBRANCH   1   3
BRANCH   1  24
ATOM     24  C   UNL     1       2.621  -7.026  12.145  1.00  0.00     0.261 C 
BRANCH  24  25
ATOM     25  O   UNL     1       3.459  -7.151  13.026  1.00  0.00    -0.365 OA
ATOM     26  H   UNL     1       4.361  -6.996  12.647  1.00  0.00     0.214 HD
ENDBRANCH  24  25
BRANCH  24  27
ATOM     27  N   UNL     1       2.904  -7.381  10.840  1.00  0.00    -0.259 NA
ATOM     28  C   UNL     1       1.836  -7.906   9.973  1.00  0.00     0.104 C 
ATOM     29  C   UNL     1       4.199  -7.294  10.148  1.00  0.00     0.089 C 
ATOM     30  C   UNL     1       2.523  -8.074   8.609  1.00  0.00     0.025 C 
ATOM     31  C   UNL     1       4.001  -8.150   8.916  1.00  0.00     0.017 C 
BRANCH  28  32
ATOM     32  C   UNL     1       1.226  -9.215  10.479  1.00  0.00     0.197 C 
BRANCH  32  33
ATOM     33  O   UNL     1       1.943 -10.200  10.675  1.00  0.00    -0.377 OA
ATOM     34  H   UNL     1       1.612 -10.961  10.135  1.00  0.00     0.212 HD
ENDBRANCH  32  33
BRANCH  32  35
ATOM     35  N   UNL     1      -0.090  -9.243  10.615  1.00  0.00    -0.305 NA
ATOM     36  H   UNL     1      -0.351  -9.997  11.266  1.00  0.00     0.121 HD
ATOM     37  H   UNL     1      -0.416  -8.340  10.987  1.00  0.00     0.121 HD
ENDBRANCH  32  35
ENDBRANCH  28  32
ENDBRANCH  24  27
ENDBRANCH   1  24
TORSDOF 10
ENDMDL
MODEL 11
REMARK VINA RESULT:    -7.758      2.365      3.597
REMARK INTER + INTRA:         -12.795
REMARK INTER:                 -11.615
REMARK INTRA:                  -1.180
REMARK UNBOUND:                -1.182
REMARK SMILES C[C@H]1N[C@@H](N[C@@H](O)N2CCC[C@H]2[C@@H](N)O)S[C@@H]1[C@H]1CCN[C@H](C(C)(C)C(F)(F)F)C1
REMARK SMILES IDX 5 1 4 3 2 4 17 5 3 6 16 7 1 8 18 10 19 11 30 12 20 13 22 14
REMARK SMILES IDX 21 15 23 17 24 18 25 19 26 20 27 21 28 22 29 23 6 24 7 25
REMARK SMILES IDX 8 27 12 28 9 29 11 30 10 31 13 32 15 33 14 35
REMARK H PARENT 5 2 3 9 21 16 7 26 15 34 14 36 14 37
ROOT
ATOM      1  N   UNL     1       1.415  -6.571  14.281  1.00  0.00    -0.255 NA
ATOM      2  H   UNL     1       2.312  -7.070  14.363  1.00  0.00     0.129 HD
ENDROOT
BRANCH   1   3
ATOM      3  C   UNL     1       0.573  -7.165  15.202  1.00  0.00     0.185 C 
ATOM      4  C   UNL     1      -0.813  -8.705  15.978  1.00  0.00     0.066 C 
ATOM      5  C   UNL     1      -0.786  -7.886  17.102  1.00  0.00     0.069 C 
ATOM      6  N   UNL     1      -0.035  -8.288  14.916  1.00  0.00    -0.290 NA
ATOM      7  S   UNL     1       0.246  -6.516  16.769  1.00  0.00    -0.122 SA
ATOM      8  C   UNL     1      -1.580  -9.980  15.840  1.00  0.00     0.025 C 
ATOM      9  H   UNL     1       0.668  -9.010  14.708  1.00  0.00     0.125 HD
BRANCH   5  10
ATOM     10  C   UNL     1      -1.434  -7.927  18.432  1.00  0.00     0.006 C 
ATOM     11  C   UNL     1      -1.768  -6.760  19.112  1.00  0.00     0.020 C 
ATOM     12  C   UNL     1      -1.747  -9.153  19.012  1.00  0.00     0.024 C 
ATOM     13  C   UNL     1      -2.353  -6.865  20.354  1.00  0.00     0.081 C 
ATOM     14  C   UNL     1      -2.360  -9.156  20.273  1.00  0.00     0.068 C 
ATOM     15  N   UNL     1      -2.643  -8.032  20.946  1.00  0.00    -0.313 NA
ATOM     16  H   UNL     1      -2.122  -8.065  21.834  1.00  0.00     0.122 HD
BRANCH  14  17
ATOM     17  C   UNL     1      -2.797 -10.479  20.947  1.00  0.00     0.076 C 
ATOM     18  C   UNL     1      -1.822 -11.621  20.615  1.00  0.00     0.022 C 
ATOM     19  C   UNL     1      -2.879 -10.296  22.473  1.00  0.00     0.022 C 
BRANCH  17  20
ATOM     20  C   UNL     1      -4.271 -10.925  20.407  1.00  0.00     0.395 C 
ATOM     21  F   UNL     1      -4.308 -10.902  19.075  1.00  0.00    -0.170 F 
ATOM     22  F   UNL     1      -4.613 -12.152  20.784  1.00  0.00    -0.170 F 
ATOM     23  F   UNL     1      -5.227 -10.115  20.849  1.00  0.00    -0.170 F 
ENDBRANCH  17  20
ENDBRANCH  14  17
ENDBRANCH   5  10
ENDBRANCH   1   3
BRANCH   1  24
ATOM     24  C   UNL     1       1.153  -6.487  12.905  1.00  0.00     0.261 C 
BRANCH  24  25
ATOM     25  O   UNL     1       0.169  -5.905  12.473  1.00  0.00    -0.365 OA
ATOM     26  H   UNL     1       0.445  -5.275  11.761  1.00  0.00     0.214 HD
ENDBRANCH  24  25
BRANCH  24  27
ATOM     27  N   UNL     1       2.056  -7.089  12.050  1.00  0.00    -0.259 NA
ATOM     28  C   UNL     1       1.569  -7.888  10.913  1.00  0.00     0.104 C 
ATOM     29  C   UNL     1       3.525  -7.034  12.111  1.00  0.00     0.089 C 
ATOM     30  C   UNL     1       2.854  -8.284  10.168  1.00  0.00     0.025 C 
ATOM     31  C   UNL     1       3.960  -8.152  11.189  1.00  0.00     0.017 C 
BRANCH  28  32
ATOM     32  C   UNL     1       0.744  -9.107  11.330  1.00  0.00     0.197 C 
BRANCH  32  33
ATOM     33  O   UNL     1      -0.350  -8.958  11.881  1.00  0.00    -0.377 OA
ATOM     34  H   UNL     1      -0.301  -8.197  12.512  1.00  0.00     0.212 HD
ENDBRANCH  32  33
BRANCH  32  35
ATOM     35  N   UNL     1       1.298 -10.293  11.136  1.00  0.00    -0.305 NA
ATOM     36  H   UNL     1       2.063 -10.207  10.452  1.00  0.00     0.121 HD
ATOM     37  H   UNL     1       1.672 -10.648  12.028  1.00  0.00     0.121 HD
ENDBRANCH  32  35
ENDBRANCH  28  32
ENDBRANCH  24  27
ENDBRANCH   1  24
TORSDOF 10
ENDMDL
MODEL 12
REMARK VINA RESULT:    -7.728      2.027      2.916
REMARK INTER + INTRA:         -12.750
REMARK INTER:                 -11.631
REMARK INTRA:                  -1.118
REMARK UNBOUND:                -1.182
REMARK SMILES C[C@H]1N[C@@H](N[C@@H](O)N2CCC[C@H]2[C@@H](N)O)S[C@@H]1[C@H]1CCN[C@H](C(C)(C)C(F)(F)F)C1
REMARK SMILES IDX 5 1 4 3 2 4 17 5 3 6 16 7 1 8 18 10 19 11 30 12 20 13 22 14
REMARK SMILES IDX 21 15 23 17 24 18 25 19 26 20 27 21 28 22 29 23 6 24 7 25
REMARK SMILES IDX 8 27 12 28 9 29 11 30 10 31 13 32 15 33 14 35
REMARK H PARENT 5 2 3 9 21 16 7 26 15 34 14 36 14 37
ROOT
ATOM      1  N   UNL     1       0.574  -7.894  13.737  1.00  0.00    -0.255 NA
ATOM      2  H   UNL     1       0.301  -8.524  12.970  1.00  0.00     0.129 HD
ENDROOT
BRANCH   1   3
ATOM      3  C   UNL     1      -0.230  -8.239  14.806  1.00  0.00     0.185 C 
ATOM      4  C   UNL     1      -1.290  -7.931  16.724  1.00  0.00     0.066 C 
ATOM      5  C   UNL     1      -1.721  -9.230  16.472  1.00  0.00     0.069 C 
ATOM      6  N   UNL     1      -0.455  -7.384  15.771  1.00  0.00    -0.290 NA
ATOM      7  S   UNL     1      -0.998  -9.777  14.978  1.00  0.00    -0.122 SA
ATOM      8  C   UNL     1      -1.669  -7.095  17.903  1.00  0.00     0.025 C 
ATOM      9  H   UNL     1      -0.897  -6.540  15.379  1.00  0.00     0.125 HD
BRANCH   5  10
ATOM     10  C   UNL     1      -2.593 -10.191  17.184  1.00  0.00     0.006 C 
ATOM     11  C   UNL     1      -3.212 -11.240  16.514  1.00  0.00     0.020 C 
ATOM     12  C   UNL     1      -2.782 -10.067  18.557  1.00  0.00     0.024 C 
ATOM     13  C   UNL     1      -4.028 -12.090  17.229  1.00  0.00     0.081 C 
ATOM     14  C   UNL     1      -3.615 -10.994  19.201  1.00  0.00     0.068 C 
ATOM     15  N   UNL     1      -4.246 -11.979  18.547  1.00  0.00    -0.313 NA
ATOM     16  H   UNL     1      -5.258 -11.840  18.682  1.00  0.00     0.122 HD
BRANCH  14  17
ATOM     17  C   UNL     1      -3.818 -10.958  20.735  1.00  0.00     0.076 C 
ATOM     18  C   UNL     1      -4.521  -9.663  21.173  1.00  0.00     0.022 C 
ATOM     19  C   UNL     1      -4.642 -12.175  21.190  1.00  0.00     0.022 C 
BRANCH  17  20
ATOM     20  C   UNL     1      -2.373 -11.007  21.493  1.00  0.00     0.395 C 
ATOM     21  F   UNL     1      -1.561 -11.877  20.894  1.00  0.00    -0.170 F 
ATOM     22  F   UNL     1      -1.750  -9.835  21.500  1.00  0.00    -0.170 F 
ATOM     23  F   UNL     1      -2.491 -11.379  22.763  1.00  0.00    -0.170 F 
ENDBRANCH  17  20
ENDBRANCH  14  17
ENDBRANCH   5  10
ENDBRANCH   1   3
BRANCH   1  24
ATOM     24  C   UNL     1       0.633  -6.612  13.170  1.00  0.00     0.261 C 
BRANCH  24  25
ATOM     25  O   UNL     1      -0.378  -5.970  12.926  1.00  0.00    -0.365 OA
ATOM     26  H   UNL     1      -0.470  -5.236  13.584  1.00  0.00     0.214 HD
ENDBRANCH  24  25
BRANCH  24  27
ATOM     27  N   UNL     1       1.885  -6.096  12.895  1.00  0.00    -0.259 NA
ATOM     28  C   UNL     1       2.998  -6.330  13.830  1.00  0.00     0.104 C 
ATOM     29  C   UNL     1       2.291  -5.304  11.723  1.00  0.00     0.089 C 
ATOM     30  C   UNL     1       4.207  -5.697  13.123  1.00  0.00     0.025 C 
ATOM     31  C   UNL     1       3.621  -4.713  12.138  1.00  0.00     0.017 C 
BRANCH  28  32
ATOM     32  C   UNL     1       2.765  -5.735  15.220  1.00  0.00     0.197 C 
BRANCH  32  33
ATOM     33  O   UNL     1       1.697  -5.175  15.486  1.00  0.00    -0.377 OA
ATOM     34  H   UNL     1       1.726  -4.835  16.415  1.00  0.00     0.212 HD
ENDBRANCH  32  33
BRANCH  32  35
ATOM     35  N   UNL     1       3.779  -5.792  16.068  1.00  0.00    -0.305 NA
ATOM     36  H   UNL     1       4.068  -4.837  16.321  1.00  0.00     0.121 HD
ATOM     37  H   UNL     1       3.490  -6.300  16.916  1.00  0.00     0.121 HD
ENDBRANCH  32  35
ENDBRANCH  28  32
ENDBRANCH  24  27
ENDBRANCH   1  24
TORSDOF 10
ENDMDL
MODEL 13
REMARK VINA RESULT:    -7.688      2.742      4.153
REMARK INTER + INTRA:         -12.691
REMARK INTER:                 -12.039
REMARK INTRA:                  -0.652
REMARK UNBOUND:                -1.182
REMARK SMILES C[C@H]1N[C@@H](N[C@@H](O)N2CCC[C@H]2[C@@H](N)O)S[C@@H]1[C@H]1CCN[C@H](C(C)(C)C(F)(F)F)C1
REMARK SMILES IDX 5 1 4 3 2 4 17 5 3 6 16 7 1 8 18 10 19 11 30 12 20 13 22 14
REMARK SMILES IDX 21 15 23 17 24 18 25 19 26 20 27 21 28 22 29 23 6 24 7 25
REMARK SMILES IDX 8 27 12 28 9 29 11 30 10 31 13 32 15 33 14 35
REMARK H PARENT 5 2 3 9 21 16 7 26 15 34 14 36 14 37
ROOT
ATOM      1  N   UNL     1       0.393  -9.758  11.868  1.00  0.00    -0.255 NA
ATOM      2  H   UNL     1      -0.530 -10.099  11.561  1.00  0.00     0.129 HD
ENDROOT
BRANCH   1   3
ATOM      3  C   UNL     1       0.168  -9.102  13.063  1.00  0.00     0.185 C 
ATOM      4  C   UNL     1       0.280  -7.427  14.504  1.00  0.00     0.066 C 
ATOM      5  C   UNL     1      -0.475  -8.300  15.281  1.00  0.00     0.069 C 
ATOM      6  N   UNL     1       0.629  -7.892  13.252  1.00  0.00    -0.290 NA
ATOM      7  S   UNL     1      -0.713  -9.781  14.384  1.00  0.00    -0.122 SA
ATOM      8  C   UNL     1       0.713  -6.053  14.899  1.00  0.00     0.025 C 
ATOM      9  H   UNL     1       0.236  -7.265  12.537  1.00  0.00     0.125 HD
BRANCH   5  10
ATOM     10  C   UNL     1      -1.060  -8.239  16.639  1.00  0.00     0.006 C 
ATOM     11  C   UNL     1      -1.092  -7.052  17.362  1.00  0.00     0.020 C 
ATOM     12  C   UNL     1      -1.619  -9.382  17.203  1.00  0.00     0.024 C 
ATOM     13  C   UNL     1      -1.632  -7.064  18.629  1.00  0.00     0.081 C 
ATOM     14  C   UNL     1      -2.164  -9.291  18.492  1.00  0.00     0.068 C 
ATOM     15  N   UNL     1      -2.155  -8.156  19.205  1.00  0.00    -0.313 NA
ATOM     16  H   UNL     1      -1.619  -8.337  20.066  1.00  0.00     0.122 HD
BRANCH  14  17
ATOM     17  C   UNL     1      -2.861 -10.504  19.155  1.00  0.00     0.076 C 
ATOM     18  C   UNL     1      -1.857 -11.362  19.941  1.00  0.00     0.022 C 
ATOM     19  C   UNL     1      -3.980 -10.024  20.095  1.00  0.00     0.022 C 
BRANCH  17  20
ATOM     20  C   UNL     1      -3.529 -11.459  18.013  1.00  0.00     0.395 C 
ATOM     21  F   UNL     1      -4.538 -12.164  18.524  1.00  0.00    -0.170 F 
ATOM     22  F   UNL     1      -4.016 -10.776  16.984  1.00  0.00    -0.170 F 
ATOM     23  F   UNL     1      -2.652 -12.321  17.511  1.00  0.00    -0.170 F 
ENDBRANCH  17  20
ENDBRANCH  14  17
ENDBRANCH   5  10
ENDBRANCH   1   3
BRANCH   1  24
ATOM     24  C   UNL     1       0.973  -9.167  10.735  1.00  0.00     0.261 C 
BRANCH  24  25
ATOM     25  O   UNL     1       0.294  -8.635   9.870  1.00  0.00    -0.365 OA
ATOM     26  H   UNL     1       0.883  -8.301   9.147  1.00  0.00     0.214 HD
ENDBRANCH  24  25
BRANCH  24  27
ATOM     27  N   UNL     1       2.350  -9.209  10.632  1.00  0.00    -0.259 NA
ATOM     28  C   UNL     1       3.150  -8.028  10.995  1.00  0.00     0.104 C 
ATOM     29  C   UNL     1       3.183 -10.340  10.194  1.00  0.00     0.089 C 
ATOM     30  C   UNL     1       4.602  -8.510  10.845  1.00  0.00     0.025 C 
ATOM     31  C   UNL     1       4.529  -9.704   9.923  1.00  0.00     0.017 C 
BRANCH  28  32
ATOM     32  C   UNL     1       2.856  -6.800  10.131  1.00  0.00     0.197 C 
BRANCH  32  33
ATOM     33  O   UNL     1       2.641  -5.705  10.658  1.00  0.00    -0.377 OA
ATOM     34  H   UNL     1       2.704  -4.992   9.974  1.00  0.00     0.212 HD
ENDBRANCH  32  33
BRANCH  32  35
ATOM     35  N   UNL     1       2.776  -6.999   8.825  1.00  0.00    -0.305 NA
ATOM     36  H   UNL     1       2.231  -6.239   8.395  1.00  0.00     0.121 HD
ATOM     37  H   UNL     1       3.723  -7.014   8.421  1.00  0.00     0.121 HD
ENDBRANCH  32  35
ENDBRANCH  28  32
ENDBRANCH  24  27
ENDBRANCH   1  24
TORSDOF 10
ENDMDL
MODEL 14
REMARK VINA RESULT:    -7.579      3.762      5.688
REMARK INTER + INTRA:         -12.527
REMARK INTER:                 -11.837
REMARK INTRA:                  -0.690
REMARK UNBOUND:                -1.182
REMARK SMILES C[C@H]1N[C@@H](N[C@@H](O)N2CCC[C@H]2[C@@H](N)O)S[C@@H]1[C@H]1CCN[C@H](C(C)(C)C(F)(F)F)C1
REMARK SMILES IDX 5 1 4 3 2 4 17 5 3 6 16 7 1 8 18 10 19 11 30 12 20 13 22 14
REMARK SMILES IDX 21 15 23 17 24 18 25 19 26 20 27 21 28 22 29 23 6 24 7 25
REMARK SMILES IDX 8 27 12 28 9 29 11 30 10 31 13 32 15 33 14 35
REMARK H PARENT 5 2 3 9 21 16 7 26 15 34 14 36 14 37
ROOT
ATOM      1  N   UNL     1       1.571  -8.172  10.791  1.00  0.00    -0.255 NA
ATOM      2  H   UNL     1       0.765  -7.886  10.216  1.00  0.00     0.129 HD
ENDROOT
BRANCH   1   3
ATOM      3  C   UNL     1       1.157  -8.039  12.103  1.00  0.00     0.185 C 
ATOM      4  C   UNL     1       1.134  -7.178  14.140  1.00  0.00     0.066 C 
ATOM      5  C   UNL     1       0.120  -8.113  14.316  1.00  0.00     0.069 C 
ATOM      6  N   UNL     1       1.705  -7.144  12.884  1.00  0.00    -0.290 NA
ATOM      7  S   UNL     1      -0.081  -9.003  12.825  1.00  0.00    -0.122 SA
ATOM      8  C   UNL     1       1.627  -6.215  15.172  1.00  0.00     0.025 C 
ATOM      9  H   UNL     1       1.567  -6.209  12.475  1.00  0.00     0.125 HD
BRANCH   5  10
ATOM     10  C   UNL     1      -0.752  -8.500  15.448  1.00  0.00     0.006 C 
ATOM     11  C   UNL     1      -1.088  -7.592  16.446  1.00  0.00     0.020 C 
ATOM     12  C   UNL     1      -1.273  -9.788  15.510  1.00  0.00     0.024 C 
ATOM     13  C   UNL     1      -1.888  -8.018  17.483  1.00  0.00     0.081 C 
ATOM     14  C   UNL     1      -2.095 -10.122  16.596  1.00  0.00     0.068 C 
ATOM     15  N   UNL     1      -2.384  -9.260  17.580  1.00  0.00    -0.313 NA
ATOM     16  H   UNL     1      -2.032  -9.665  18.459  1.00  0.00     0.122 HD
BRANCH  14  17
ATOM     17  C   UNL     1      -2.764 -11.515  16.696  1.00  0.00     0.076 C 
ATOM     18  C   UNL     1      -1.715 -12.638  16.693  1.00  0.00     0.022 C 
ATOM     19  C   UNL     1      -3.616 -11.605  17.974  1.00  0.00     0.022 C 
BRANCH  17  20
ATOM     20  C   UNL     1      -3.743 -11.760  15.413  1.00  0.00     0.395 C 
ATOM     21  F   UNL     1      -3.952 -13.063  15.227  1.00  0.00    -0.170 F 
ATOM     22  F   UNL     1      -4.934 -11.192  15.553  1.00  0.00    -0.170 F 
ATOM     23  F   UNL     1      -3.223 -11.273  14.291  1.00  0.00    -0.170 F 
ENDBRANCH  17  20
ENDBRANCH  14  17
ENDBRANCH   5  10
ENDBRANCH   1   3
BRANCH   1  24
ATOM     24  C   UNL     1       2.681  -7.515  10.239  1.00  0.00     0.261 C 
BRANCH  24  25
ATOM     25  O   UNL     1       2.583  -6.414   9.718  1.00  0.00    -0.365 OA
ATOM     26  H   UNL     1       1.660  -6.074   9.837  1.00  0.00     0.214 HD
ENDBRANCH  24  25
BRANCH  24  27
ATOM     27  N   UNL     1       3.900  -8.162  10.307  1.00  0.00    -0.259 NA
ATOM     28  C   UNL     1       4.344  -9.012   9.190  1.00  0.00     0.104 C 
ATOM     29  C   UNL     1       4.883  -8.111  11.401  1.00  0.00     0.089 C 
ATOM     30  C   UNL     1       5.758  -9.449   9.604  1.00  0.00     0.025 C 
ATOM     31  C   UNL     1       5.804  -9.273  11.104  1.00  0.00     0.017 C 
BRANCH  28  32
ATOM     32  C   UNL     1       3.424 -10.206   8.926  1.00  0.00     0.197 C 
BRANCH  32  33
ATOM     33  O   UNL     1       2.671 -10.206   7.949  1.00  0.00    -0.377 OA
ATOM     34  H   UNL     1       2.938 -10.929   7.327  1.00  0.00     0.212 HD
ENDBRANCH  32  33
BRANCH  32  35
ATOM     35  N   UNL     1       3.435 -11.174   9.828  1.00  0.00    -0.305 NA
ATOM     36  H   UNL     1       3.726 -10.792  10.739  1.00  0.00     0.121 HD
ATOM     37  H   UNL     1       2.490 -11.576   9.911  1.00  0.00     0.121 HD
ENDBRANCH  32  35
ENDBRANCH  28  32
ENDBRANCH  24  27
ENDBRANCH   1  24
TORSDOF 10
ENDMDL
MODEL 15
REMARK VINA RESULT:    -7.526      2.724      4.229
REMARK INTER + INTRA:         -12.448
REMARK INTER:                 -11.547
REMARK INTRA:                  -0.901
REMARK UNBOUND:                -1.182
REMARK SMILES C[C@H]1N[C@@H](N[C@@H](O)N2CCC[C@H]2[C@@H](N)O)S[C@@H]1[C@H]1CCN[C@H](C(C)(C)C(F)(F)F)C1
REMARK SMILES IDX 5 1 4 3 2 4 17 5 3 6 16 7 1 8 18 10 19 11 30 12 20 13 22 14
REMARK SMILES IDX 21 15 23 17 24 18 25 19 26 20 27 21 28 22 29 23 6 24 7 25
REMARK SMILES IDX 8 27 12 28 9 29 11 30 10 31 13 32 15 33 14 35
REMARK H PARENT 5 2 3 9 21 16 7 26 15 34 14 36 14 37
ROOT
ATOM      1  N   UNL     1       1.904  -6.706  12.906  1.00  0.00    -0.255 NA
ATOM      2  H   UNL     1       2.849  -6.859  13.287  1.00  0.00     0.129 HD
ENDROOT
BRANCH   1   3
ATOM      3  C   UNL     1       1.041  -7.307  13.802  1.00  0.00     0.185 C 
ATOM      4  C   UNL     1      -0.392  -8.833  14.520  1.00  0.00     0.066 C 
ATOM      5  C   UNL     1      -0.349  -8.052  15.671  1.00  0.00     0.069 C 
ATOM      6  N   UNL     1       0.403  -8.403  13.477  1.00  0.00    -0.290 NA
ATOM      7  S   UNL     1       0.722  -6.701  15.388  1.00  0.00    -0.122 SA
ATOM      8  C   UNL     1      -1.193 -10.081  14.336  1.00  0.00     0.025 C 
ATOM      9  H   UNL     1       1.088  -9.137  13.249  1.00  0.00     0.125 HD
BRANCH   5  10
ATOM     10  C   UNL     1      -1.007  -8.119  16.995  1.00  0.00     0.006 C 
ATOM     11  C   UNL     1      -1.095  -7.000  17.817  1.00  0.00     0.020 C 
ATOM     12  C   UNL     1      -1.577  -9.313  17.425  1.00  0.00     0.024 C 
ATOM     13  C   UNL     1      -1.702  -7.131  19.046  1.00  0.00     0.081 C 
ATOM     14  C   UNL     1      -2.191  -9.342  18.685  1.00  0.00     0.068 C 
ATOM     15  N   UNL     1      -2.239  -8.275  19.495  1.00  0.00    -0.313 NA
ATOM     16  H   UNL     1      -1.747  -8.526  20.364  1.00  0.00     0.122 HD
BRANCH  14  17
ATOM     17  C   UNL     1      -2.904 -10.617  19.199  1.00  0.00     0.076 C 
ATOM     18  C   UNL     1      -1.948 -11.496  20.021  1.00  0.00     0.022 C 
ATOM     19  C   UNL     1      -4.123 -10.234  20.057  1.00  0.00     0.022 C 
BRANCH  17  20
ATOM     20  C   UNL     1      -3.429 -11.513  17.940  1.00  0.00     0.395 C 
ATOM     21  F   UNL     1      -3.818 -10.727  16.937  1.00  0.00    -0.170 F 
ATOM     22  F   UNL     1      -2.496 -12.326  17.458  1.00  0.00    -0.170 F 
ATOM     23  F   UNL     1      -4.461 -12.280  18.272  1.00  0.00    -0.170 F 
ENDBRANCH  17  20
ENDBRANCH  14  17
ENDBRANCH   5  10
ENDBRANCH   1   3
BRANCH   1  24
ATOM     24  C   UNL     1       1.989  -7.034  11.545  1.00  0.00     0.261 C 
BRANCH  24  25
ATOM     25  O   UNL     1       1.107  -6.729  10.755  1.00  0.00    -0.365 OA
ATOM     26  H   UNL     1       0.814  -7.536  10.260  1.00  0.00     0.214 HD
ENDBRANCH  24  25
BRANCH  24  27
ATOM     27  N   UNL     1       3.113  -7.719  11.125  1.00  0.00    -0.259 NA
ATOM     28  C   UNL     1       2.990  -8.789  10.121  1.00  0.00     0.104 C 
ATOM     29  C   UNL     1       4.504  -7.510  11.557  1.00  0.00     0.089 C 
ATOM     30  C   UNL     1       4.444  -9.212   9.858  1.00  0.00     0.025 C 
ATOM     31  C   UNL     1       5.216  -8.754  11.074  1.00  0.00     0.017 C 
BRANCH  28  32
ATOM     32  C   UNL     1       2.121  -9.962  10.581  1.00  0.00     0.197 C 
BRANCH  32  33
ATOM     33  O   UNL     1       2.622 -11.076  10.754  1.00  0.00    -0.377 OA
ATOM     34  H   UNL     1       1.920 -11.712  11.042  1.00  0.00     0.212 HD
ENDBRANCH  32  33
BRANCH  32  35
ATOM     35  N   UNL     1       0.825  -9.728  10.705  1.00  0.00    -0.305 NA
ATOM     36  H   UNL     1       0.602  -8.808  10.298  1.00  0.00     0.121 HD
ATOM     37  H   UNL     1       0.295 -10.459  10.210  1.00  0.00     0.121 HD
ENDBRANCH  32  35
ENDBRANCH  28  32
ENDBRANCH  24  27
ENDBRANCH   1  24
TORSDOF 10
ENDMDL
MODEL 16
REMARK VINA RESULT:    -7.445      1.660      2.491
REMARK INTER + INTRA:         -12.326
REMARK INTER:                 -11.039
REMARK INTRA:                  -1.287
REMARK UNBOUND:                -1.182
REMARK SMILES C[C@H]1N[C@@H](N[C@@H](O)N2CCC[C@H]2[C@@H](N)O)S[C@@H]1[C@H]1CCN[C@H](C(C)(C)C(F)(F)F)C1
REMARK SMILES IDX 5 1 4 3 2 4 17 5 3 6 16 7 1 8 18 10 19 11 30 12 20 13 22 14
REMARK SMILES IDX 21 15 23 17 24 18 25 19 26 20 27 21 28 22 29 23 6 24 7 25
REMARK SMILES IDX 8 27 12 28 9 29 11 30 10 31 13 32 15 33 14 35
REMARK H PARENT 5 2 3 9 21 16 7 26 15 34 14 36 14 37
ROOT
ATOM      1  N   UNL     1       0.812  -6.495  14.495  1.00  0.00    -0.255 NA
ATOM      2  H   UNL     1       1.795  -6.651  14.758  1.00  0.00     0.129 HD
ENDROOT
BRANCH   1   3
ATOM      3  C   UNL     1       0.094  -7.487  15.134  1.00  0.00     0.185 C 
ATOM      4  C   UNL     1      -0.817  -9.489  15.379  1.00  0.00     0.066 C 
ATOM      5  C   UNL     1      -1.193  -8.955  16.608  1.00  0.00     0.069 C 
ATOM      6  N   UNL     1      -0.086  -8.650  14.562  1.00  0.00    -0.290 NA
ATOM      7  S   UNL     1      -0.617  -7.308  16.699  1.00  0.00    -0.122 SA
ATOM      8  C   UNL     1      -1.115 -10.871  14.896  1.00  0.00     0.025 C 
ATOM      9  H   UNL     1       0.831  -9.079  14.373  1.00  0.00     0.125 HD
BRANCH   5  10
ATOM     10  C   UNL     1      -1.957  -9.462  17.770  1.00  0.00     0.006 C 
ATOM     11  C   UNL     1      -3.057 -10.297  17.606  1.00  0.00     0.020 C 
ATOM     12  C   UNL     1      -1.558  -9.124  19.060  1.00  0.00     0.024 C 
ATOM     13  C   UNL     1      -3.737 -10.719  18.726  1.00  0.00     0.081 C 
ATOM     14  C   UNL     1      -2.304  -9.621  20.139  1.00  0.00     0.068 C 
ATOM     15  N   UNL     1      -3.389 -10.390  19.978  1.00  0.00    -0.313 NA
ATOM     16  H   UNL     1      -4.186  -9.892  20.399  1.00  0.00     0.122 HD
BRANCH  14  17
ATOM     17  C   UNL     1      -1.879  -9.342  21.601  1.00  0.00     0.076 C 
ATOM     18  C   UNL     1      -0.783  -8.266  21.667  1.00  0.00     0.022 C 
ATOM     19  C   UNL     1      -3.095  -8.894  22.431  1.00  0.00     0.022 C 
BRANCH  17  20
ATOM     20  C   UNL     1      -1.272 -10.698  22.277  1.00  0.00     0.395 C 
ATOM     21  F   UNL     1      -0.895 -11.562  21.336  1.00  0.00    -0.170 F 
ATOM     22  F   UNL     1      -0.210 -10.466  23.040  1.00  0.00    -0.170 F 
ATOM     23  F   UNL     1      -2.163 -11.309  23.049  1.00  0.00    -0.170 F 
ENDBRANCH  17  20
ENDBRANCH  14  17
ENDBRANCH   5  10
ENDBRANCH   1   3
BRANCH   1  24
ATOM     24  C   UNL     1       0.819  -6.290  13.107  1.00  0.00     0.261 C 
BRANCH  24  25
ATOM     25  O   UNL     1       0.009  -5.556  12.562  1.00  0.00    -0.365 OA
ATOM     26  H   UNL     1      -0.898  -5.943  12.649  1.00  0.00     0.214 HD
ENDBRANCH  24  25
BRANCH  24  27
ATOM     27  N   UNL     1       1.784  -6.953  12.373  1.00  0.00    -0.259 NA
ATOM     28  C   UNL     1       3.191  -6.917  12.804  1.00  0.00     0.104 C 
ATOM     29  C   UNL     1       1.590  -7.749  11.150  1.00  0.00     0.089 C 
ATOM     30  C   UNL     1       3.903  -7.840  11.804  1.00  0.00     0.025 C 
ATOM     31  C   UNL     1       2.992  -7.900  10.601  1.00  0.00     0.017 C 
BRANCH  28  32
ATOM     32  C   UNL     1       3.790  -5.509  12.819  1.00  0.00     0.197 C 
BRANCH  32  33
ATOM     33  O   UNL     1       3.571  -4.730  11.886  1.00  0.00    -0.377 OA
ATOM     34  H   UNL     1       4.319  -4.773  11.240  1.00  0.00     0.212 HD
ENDBRANCH  32  33
BRANCH  32  35
ATOM     35  N   UNL     1       4.593  -5.216  13.828  1.00  0.00    -0.305 NA
ATOM     36  H   UNL     1       5.070  -6.071  14.147  1.00  0.00     0.121 HD
ATOM     37  H   UNL     1       5.294  -4.526  13.521  1.00  0.00     0.121 HD
ENDBRANCH  32  35
ENDBRANCH  28  32
ENDBRANCH  24  27
ENDBRANCH   1  24
TORSDOF 10
ENDMDL
MODEL 17
REMARK VINA RESULT:    -7.440      1.896      2.803
REMARK INTER + INTRA:         -12.319
REMARK INTER:                 -10.897
REMARK INTRA:                  -1.422
REMARK UNBOUND:                -1.182
REMARK SMILES C[C@H]1N[C@@H](N[C@@H](O)N2CCC[C@H]2[C@@H](N)O)S[C@@H]1[C@H]1CCN[C@H](C(C)(C)C(F)(F)F)C1
REMARK SMILES IDX 5 1 4 3 2 4 17 5 3 6 16 7 1 8 18 10 19 11 30 12 20 13 22 14
REMARK SMILES IDX 21 15 23 17 24 18 25 19 26 20 27 21 28 22 29 23 6 24 7 25
REMARK SMILES IDX 8 27 12 28 9 29 11 30 10 31 13 32 15 33 14 35
REMARK H PARENT 5 2 3 9 21 16 7 26 15 34 14 36 14 37
ROOT
ATOM      1  N   UNL     1       0.308  -6.339  15.313  1.00  0.00    -0.255 NA
ATOM      2  H   UNL     1      -0.024  -5.627  15.980  1.00  0.00     0.129 HD
ENDROOT
BRANCH   1   3
ATOM      3  C   UNL     1      -0.357  -7.502  15.650  1.00  0.00     0.185 C 
ATOM      4  C   UNL     1      -0.995  -9.608  15.419  1.00  0.00     0.066 C 
ATOM      5  C   UNL     1      -1.651  -9.338  16.617  1.00  0.00     0.069 C 
ATOM      6  N   UNL     1      -0.264  -8.563  14.891  1.00  0.00    -0.290 NA
ATOM      7  S   UNL     1      -1.345  -7.675  17.057  1.00  0.00    -0.122 SA
ATOM      8  C   UNL     1      -1.001 -10.912  14.691  1.00  0.00     0.025 C 
ATOM      9  H   UNL     1       0.724  -8.844  14.821  1.00  0.00     0.125 HD
BRANCH   5  10
ATOM     10  C   UNL     1      -2.521 -10.121  17.523  1.00  0.00     0.006 C 
ATOM     11  C   UNL     1      -3.334 -11.142  17.043  1.00  0.00     0.020 C 
ATOM     12  C   UNL     1      -2.513  -9.855  18.888  1.00  0.00     0.024 C 
ATOM     13  C   UNL     1      -4.136 -11.821  17.934  1.00  0.00     0.081 C 
ATOM     14  C   UNL     1      -3.350 -10.614  19.719  1.00  0.00     0.068 C 
ATOM     15  N   UNL     1      -4.165 -11.570  19.251  1.00  0.00    -0.313 NA
ATOM     16  H   UNL     1      -5.129 -11.298  19.491  1.00  0.00     0.122 HD
BRANCH  14  17
ATOM     17  C   UNL     1      -3.344 -10.420  21.255  1.00  0.00     0.076 C 
ATOM     18  C   UNL     1      -3.666  -8.965  21.633  1.00  0.00     0.022 C 
ATOM     19  C   UNL     1      -4.365 -11.365  21.914  1.00  0.00     0.022 C 
BRANCH  17  20
ATOM     20  C   UNL     1      -1.867 -10.765  21.858  1.00  0.00     0.395 C 
ATOM     21  F   UNL     1      -1.957 -11.130  23.136  1.00  0.00    -0.170 F 
ATOM     22  F   UNL     1      -1.262 -11.755  21.213  1.00  0.00    -0.170 F 
ATOM     23  F   UNL     1      -1.049  -9.720  21.796  1.00  0.00    -0.170 F 
ENDBRANCH  17  20
ENDBRANCH  14  17
ENDBRANCH   5  10
ENDBRANCH   1   3
BRANCH   1  24
ATOM     24  C   UNL     1       1.705  -6.204  15.282  1.00  0.00     0.261 C 
BRANCH  24  25
ATOM     25  O   UNL     1       2.414  -6.656  16.168  1.00  0.00    -0.365 OA
ATOM     26  H   UNL     1       2.844  -7.491  15.854  1.00  0.00     0.214 HD
ENDBRANCH  24  25
BRANCH  24  27
ATOM     27  N   UNL     1       2.254  -5.538  14.203  1.00  0.00    -0.259 NA
ATOM     28  C   UNL     1       1.687  -5.725  12.857  1.00  0.00     0.104 C 
ATOM     29  C   UNL     1       3.390  -4.603  14.211  1.00  0.00     0.089 C 
ATOM     30  C   UNL     1       2.495  -4.753  11.983  1.00  0.00     0.025 C 
ATOM     31  C   UNL     1       3.771  -4.496  12.750  1.00  0.00     0.017 C 
BRANCH  28  32
ATOM     32  C   UNL     1       1.774  -7.166  12.351  1.00  0.00     0.197 C 
BRANCH  32  33
ATOM     33  O   UNL     1       2.864  -7.649  12.035  1.00  0.00    -0.377 OA
ATOM     34  H   UNL     1       3.564  -6.952  12.095  1.00  0.00     0.212 HD
ENDBRANCH  32  33
BRANCH  32  35
ATOM     35  N   UNL     1       0.629  -7.815  12.208  1.00  0.00    -0.305 NA
ATOM     36  H   UNL     1      -0.131  -7.267  12.634  1.00  0.00     0.121 HD
ATOM     37  H   UNL     1       0.434  -7.950  11.205  1.00  0.00     0.121 HD
ENDBRANCH  32  35
ENDBRANCH  28  32
ENDBRANCH  24  27
ENDBRANCH   1  24
TORSDOF 10
ENDMDL
MODEL 18
REMARK VINA RESULT:    -7.438      5.520     10.019
REMARK INTER + INTRA:         -12.316
REMARK INTER:                 -11.272
REMARK INTRA:                  -1.044
REMARK UNBOUND:                -1.182
REMARK SMILES C[C@H]1N[C@@H](N[C@@H](O)N2CCC[C@H]2[C@@H](N)O)S[C@@H]1[C@H]1CCN[C@H](C(C)(C)C(F)(F)F)C1
REMARK SMILES IDX 5 1 4 3 2 4 17 5 3 6 16 7 1 8 18 10 19 11 30 12 20 13 22 14
REMARK SMILES IDX 21 15 23 17 24 18 25 19 26 20 27 21 28 22 29 23 6 24 7 25
REMARK SMILES IDX 8 27 12 28 9 29 11 30 10 31 13 32 15 33 14 35
REMARK H PARENT 5 2 3 9 21 16 7 26 15 34 14 36 14 37
ROOT
ATOM      1  N   UNL     1      -1.962  -8.306  24.362  1.00  0.00    -0.255 NA
ATOM      2  H   UNL     1      -0.953  -8.499  24.436  1.00  0.00     0.129 HD
ENDROOT
BRANCH   1   3
ATOM      3  C   UNL     1      -2.319  -8.683  23.081  1.00  0.00     0.185 C 
ATOM      4  C   UNL     1      -3.577  -9.630  21.526  1.00  0.00     0.066 C 
ATOM      5  C   UNL     1      -2.595  -9.110  20.689  1.00  0.00     0.069 C 
ATOM      6  N   UNL     1      -3.411  -9.374  22.872  1.00  0.00    -0.290 NA
ATOM      7  S   UNL     1      -1.399  -8.297  21.671  1.00  0.00    -0.122 SA
ATOM      8  C   UNL     1      -4.779 -10.403  21.092  1.00  0.00     0.025 C 
ATOM      9  H   UNL     1      -4.220  -8.840  23.217  1.00  0.00     0.125 HD
BRANCH   5  10
ATOM     10  C   UNL     1      -2.360  -9.127  19.228  1.00  0.00     0.006 C 
ATOM     11  C   UNL     1      -1.971  -7.982  18.543  1.00  0.00     0.020 C 
ATOM     12  C   UNL     1      -2.503 -10.316  18.519  1.00  0.00     0.024 C 
ATOM     13  C   UNL     1      -1.786  -8.058  17.180  1.00  0.00     0.081 C 
ATOM     14  C   UNL     1      -2.274 -10.298  17.135  1.00  0.00     0.068 C 
ATOM     15  N   UNL     1      -1.940  -9.185  16.469  1.00  0.00    -0.313 NA
ATOM     16  H   UNL     1      -2.677  -9.010  15.771  1.00  0.00     0.122 HD
BRANCH  14  17
ATOM     17  C   UNL     1      -2.349 -11.596  16.294  1.00  0.00     0.076 C 
ATOM     18  C   UNL     1      -1.726 -11.395  14.904  1.00  0.00     0.022 C 
ATOM     19  C   UNL     1      -1.628 -12.743  17.024  1.00  0.00     0.022 C 
BRANCH  17  20
ATOM     20  C   UNL     1      -3.906 -12.032  16.072  1.00  0.00     0.395 C 
ATOM     21  F   UNL     1      -3.979 -13.174  15.389  1.00  0.00    -0.170 F 
ATOM     22  F   UNL     1      -4.561 -12.219  17.212  1.00  0.00    -0.170 F 
ATOM     23  F   UNL     1      -4.586 -11.115  15.393  1.00  0.00    -0.170 F 
ENDBRANCH  17  20
ENDBRANCH  14  17
ENDBRANCH   5  10
ENDBRANCH   1   3
BRANCH   1  24
ATOM     24  C   UNL     1      -2.141  -7.018  24.888  1.00  0.00     0.261 C 
BRANCH  24  25
ATOM     25  O   UNL     1      -1.766  -6.021  24.288  1.00  0.00    -0.365 OA
ATOM     26  H   UNL     1      -0.829  -5.819  24.537  1.00  0.00     0.214 HD
ENDBRANCH  24  25
BRANCH  24  27
ATOM     27  N   UNL     1      -2.762  -6.915  26.118  1.00  0.00    -0.259 NA
ATOM     28  C   UNL     1      -2.062  -6.273  27.243  1.00  0.00     0.104 C 
ATOM     29  C   UNL     1      -4.111  -7.375  26.483  1.00  0.00     0.089 C 
ATOM     30  C   UNL     1      -3.108  -6.267  28.368  1.00  0.00     0.025 C 
ATOM     31  C   UNL     1      -4.097  -7.347  27.996  1.00  0.00     0.017 C 
BRANCH  28  32
ATOM     32  C   UNL     1      -0.775  -6.993  27.654  1.00  0.00     0.197 C 
BRANCH  32  33
ATOM     33  O   UNL     1      -0.645  -8.202  27.442  1.00  0.00    -0.377 OA
ATOM     34  H   UNL     1      -0.783  -8.701  28.286  1.00  0.00     0.212 HD
ENDBRANCH  32  33
BRANCH  32  35
ATOM     35  N   UNL     1       0.128  -6.273  28.298  1.00  0.00    -0.305 NA
ATOM     36  H   UNL     1       0.851  -6.895  28.685  1.00  0.00     0.121 HD
ATOM     37  H   UNL     1       0.564  -5.605  27.645  1.00  0.00     0.121 HD
ENDBRANCH  32  35
ENDBRANCH  28  32
ENDBRANCH  24  27
ENDBRANCH   1  24
TORSDOF 10
ENDMDL
MODEL 19
REMARK VINA RESULT:    -7.324      3.081      4.614
REMARK INTER + INTRA:         -12.146
REMARK INTER:                 -10.933
REMARK INTRA:                  -1.213
REMARK UNBOUND:                -1.182
REMARK SMILES C[C@H]1N[C@@H](N[C@@H](O)N2CCC[C@H]2[C@@H](N)O)S[C@@H]1[C@H]1CCN[C@H](C(C)(C)C(F)(F)F)C1
REMARK SMILES IDX 5 1 4 3 2 4 17 5 3 6 16 7 1 8 18 10 19 11 30 12 20 13 22 14
REMARK SMILES IDX 21 15 23 17 24 18 25 19 26 20 27 21 28 22 29 23 6 24 7 25
REMARK SMILES IDX 8 27 12 28 9 29 11 30 10 31 13 32 15 33 14 35
REMARK H PARENT 5 2 3 9 21 16 7 26 15 34 14 36 14 37
ROOT
ATOM      1  N   UNL     1      -0.332  -5.566  15.767  1.00  0.00    -0.255 NA
ATOM      2  H   UNL     1      -1.185  -4.993  15.701  1.00  0.00     0.129 HD
ENDROOT
BRANCH   1   3
ATOM      3  C   UNL     1      -0.766  -6.854  16.016  1.00  0.00     0.185 C 
ATOM      4  C   UNL     1      -0.852  -9.048  15.747  1.00  0.00     0.066 C 
ATOM      5  C   UNL     1      -1.766  -8.946  16.792  1.00  0.00     0.069 C 
ATOM      6  N   UNL     1      -0.292  -7.859  15.326  1.00  0.00    -0.290 NA
ATOM      7  S   UNL     1      -1.935  -7.261  17.221  1.00  0.00    -0.122 SA
ATOM      8  C   UNL     1      -0.423 -10.313  15.077  1.00  0.00     0.025 C 
ATOM      9  H   UNL     1       0.729  -7.904  15.451  1.00  0.00     0.125 HD
BRANCH   5  10
ATOM     10  C   UNL     1      -2.590  -9.915  17.548  1.00  0.00     0.006 C 
ATOM     11  C   UNL     1      -3.257 -10.953  16.908  1.00  0.00     0.020 C 
ATOM     12  C   UNL     1      -2.683  -9.811  18.932  1.00  0.00     0.024 C 
ATOM     13  C   UNL     1      -4.024 -11.811  17.665  1.00  0.00     0.081 C 
ATOM     14  C   UNL     1      -3.473 -10.745  19.619  1.00  0.00     0.068 C 
ATOM     15  N   UNL     1      -4.150 -11.720  18.997  1.00  0.00    -0.313 NA
ATOM     16  H   UNL     1      -5.150 -11.580  19.203  1.00  0.00     0.122 HD
BRANCH  14  17
ATOM     17  C   UNL     1      -3.568 -10.731  21.164  1.00  0.00     0.076 C 
ATOM     18  C   UNL     1      -4.155  -9.405  21.673  1.00  0.00     0.022 C 
ATOM     19  C   UNL     1      -4.437 -11.904  21.653  1.00  0.00     0.022 C 
BRANCH  17  20
ATOM     20  C   UNL     1      -2.082 -10.889  21.819  1.00  0.00     0.395 C 
ATOM     21  F   UNL     1      -2.172 -11.222  23.107  1.00  0.00    -0.170 F 
ATOM     22  F   UNL     1      -1.350 -11.826  21.227  1.00  0.00    -0.170 F 
ATOM     23  F   UNL     1      -1.384  -9.762  21.745  1.00  0.00    -0.170 F 
ENDBRANCH  17  20
ENDBRANCH  14  17
ENDBRANCH   5  10
ENDBRANCH   1   3
BRANCH   1  24
ATOM     24  C   UNL     1       0.541  -4.848  16.599  1.00  0.00     0.261 C 
BRANCH  24  25
ATOM     25  O   UNL     1       1.673  -4.555  16.244  1.00  0.00    -0.365 OA
ATOM     26  H   UNL     1       1.633  -4.082  15.375  1.00  0.00     0.214 HD
ENDBRANCH  24  25
BRANCH  24  27
ATOM     27  N   UNL     1       0.071  -4.481  17.846  1.00  0.00    -0.259 NA
ATOM     28  C   UNL     1      -1.077  -3.566  17.959  1.00  0.00     0.104 C 
ATOM     29  C   UNL     1       0.580  -4.908  19.158  1.00  0.00     0.089 C 
ATOM     30  C   UNL     1      -1.343  -3.498  19.471  1.00  0.00     0.025 C 
ATOM     31  C   UNL     1      -0.046  -3.923  20.120  1.00  0.00     0.017 C 
BRANCH  28  32
ATOM     32  C   UNL     1      -0.820  -2.184  17.354  1.00  0.00     0.197 C 
BRANCH  32  33
ATOM     33  O   UNL     1       0.334  -1.807  17.133  1.00  0.00    -0.377 OA
ATOM     34  H   UNL     1       0.944  -2.202  17.804  1.00  0.00     0.212 HD
ENDBRANCH  32  33
BRANCH  32  35
ATOM     35  N   UNL     1      -1.879  -1.415  17.159  1.00  0.00    -0.305 NA
ATOM     36  H   UNL     1      -1.761  -0.883  16.286  1.00  0.00     0.121 HD
ATOM     37  H   UNL     1      -2.723  -2.002  17.093  1.00  0.00     0.121 HD
ENDBRANCH  32  35
ENDBRANCH  28  32
ENDBRANCH  24  27
ENDBRANCH   1  24
TORSDOF 10
ENDMDL
MODEL 20
REMARK VINA RESULT:    -7.295      4.169      6.664
REMARK INTER + INTRA:         -12.103
REMARK INTER:                 -10.695
REMARK INTRA:                  -1.407
REMARK UNBOUND:                -1.182
REMARK SMILES C[C@H]1N[C@@H](N[C@@H](O)N2CCC[C@H]2[C@@H](N)O)S[C@@H]1[C@H]1CCN[C@H](C(C)(C)C(F)(F)F)C1
REMARK SMILES IDX 5 1 4 3 2 4 17 5 3 6 16 7 1 8 18 10 19 11 30 12 20 13 22 14
REMARK SMILES IDX 21 15 23 17 24 18 25 19 26 20 27 21 28 22 29 23 6 24 7 25
REMARK SMILES IDX 8 27 12 28 9 29 11 30 10 31 13 32 15 33 14 35
REMARK H PARENT 5 2 3 9 21 16 7 26 15 34 14 36 14 37
ROOT
ATOM      1  N   UNL     1      -0.415  -3.855  17.444  1.00  0.00    -0.255 NA
ATOM      2  H   UNL     1      -0.716  -4.171  18.376  1.00  0.00     0.129 HD
ENDROOT
BRANCH   1   3
ATOM      3  C   UNL     1      -0.239  -5.005  16.699  1.00  0.00     0.185 C 
ATOM      4  C   UNL     1       0.764  -6.349  15.256  1.00  0.00     0.066 C 
ATOM      5  C   UNL     1      -0.283  -7.194  15.609  1.00  0.00     0.069 C 
ATOM      6  N   UNL     1       0.778  -5.120  15.885  1.00  0.00    -0.290 NA
ATOM      7  S   UNL     1      -1.303  -6.366  16.761  1.00  0.00    -0.122 SA
ATOM      8  C   UNL     1       1.860  -6.666  14.291  1.00  0.00     0.025 C 
ATOM      9  H   UNL     1       1.652  -5.025  16.421  1.00  0.00     0.125 HD
BRANCH   5  10
ATOM     10  C   UNL     1      -0.695  -8.558  15.211  1.00  0.00     0.006 C 
ATOM     11  C   UNL     1      -0.353  -9.085  13.970  1.00  0.00     0.020 C 
ATOM     12  C   UNL     1      -1.417  -9.350  16.099  1.00  0.00     0.024 C 
ATOM     13  C   UNL     1      -0.783 -10.354  13.651  1.00  0.00     0.081 C 
ATOM     14  C   UNL     1      -1.793 -10.637  15.690  1.00  0.00     0.068 C 
ATOM     15  N   UNL     1      -1.499 -11.129  14.478  1.00  0.00    -0.313 NA
ATOM     16  H   UNL     1      -2.391 -11.341  14.008  1.00  0.00     0.122 HD
BRANCH  14  17
ATOM     17  C   UNL     1      -2.538 -11.597  16.650  1.00  0.00     0.076 C 
ATOM     18  C   UNL     1      -1.685 -12.835  16.971  1.00  0.00     0.022 C 
ATOM     19  C   UNL     1      -2.901 -10.866  17.954  1.00  0.00     0.022 C 
BRANCH  17  20
ATOM     20  C   UNL     1      -3.919 -12.122  15.958  1.00  0.00     0.395 C 
ATOM     21  F   UNL     1      -4.840 -12.376  16.887  1.00  0.00    -0.170 F 
ATOM     22  F   UNL     1      -4.447 -11.240  15.118  1.00  0.00    -0.170 F 
ATOM     23  F   UNL     1      -3.733 -13.239  15.263  1.00  0.00    -0.170 F 
ENDBRANCH  17  20
ENDBRANCH  14  17
ENDBRANCH   5  10
ENDBRANCH   1   3
BRANCH   1  24
ATOM     24  C   UNL     1       0.585  -2.898  17.673  1.00  0.00     0.261 C 
BRANCH  24  25
ATOM     25  O   UNL     1       0.526  -1.778  17.187  1.00  0.00    -0.365 OA
ATOM     26  H   UNL     1      -0.368  -1.640  16.784  1.00  0.00     0.214 HD
ENDBRANCH  24  25
BRANCH  24  27
ATOM     27  N   UNL     1       1.647  -3.270  18.474  1.00  0.00    -0.259 NA
ATOM     28  C   UNL     1       3.026  -2.969  18.054  1.00  0.00     0.104 C 
ATOM     29  C   UNL     1       1.593  -3.957  19.774  1.00  0.00     0.089 C 
ATOM     30  C   UNL     1       3.880  -3.440  19.241  1.00  0.00     0.025 C 
ATOM     31  C   UNL     1       3.014  -4.429  19.985  1.00  0.00     0.017 C 
BRANCH  28  32
ATOM     32  C   UNL     1       3.428  -3.652  16.745  1.00  0.00     0.197 C 
BRANCH  32  33
ATOM     33  O   UNL     1       3.169  -3.121  15.661  1.00  0.00    -0.377 OA
ATOM     34  H   UNL     1       2.248  -2.759  15.684  1.00  0.00     0.212 HD
ENDBRANCH  32  33
BRANCH  32  35
ATOM     35  N   UNL     1       3.988  -4.847  16.846  1.00  0.00    -0.305 NA
ATOM     36  H   UNL     1       3.735  -5.415  16.026  1.00  0.00     0.121 HD
ATOM     37  H   UNL     1       5.012  -4.744  16.891  1.00  0.00     0.121 HD
ENDBRANCH  32  35
ENDBRANCH  28  32
ENDBRANCH  24  27
ENDBRANCH   1  24
TORSDOF 10
ENDMDL
