MODEL 1
REMARK VINA RESULT:    -9.517      0.000      0.000
REMARK INTER + INTRA:         -11.507
REMARK INTER:                 -11.186
REMARK INTRA:                  -0.321
REMARK UNBOUND:                -0.321
REMARK SMILES CN1C(N)=N[C@](C)(c2cc(NC(=O)c3ccc(F)cn3)ccc2F)CS1(=O)=O
REMARK SMILES IDX 8 1 9 2 10 3 21 4 22 5 23 6 24 7 6 8 25 9 5 10 26 11 3 12
REMARK SMILES IDX 27 13 2 14 28 15 4 16 7 17 1 18 11 21 12 22 13 23 14 25
REMARK SMILES IDX 20 26 15 27 19 28 16 29 17 30 18 31
REMARK H PARENT 4 19 4 20 11 24
ROOT
ATOM      1  C   UNL     1      22.876  10.522  20.566  1.00  0.00     0.018 A 
ATOM      2  C   UNL     1      24.160  10.144  20.957  1.00  0.00     0.035 A 
ATOM      3  C   UNL     1      25.282  10.505  20.246  1.00  0.00     0.042 A 
ATOM      4  C   UNL     1      25.167  11.253  19.081  1.00  0.00     0.029 A 
ATOM      5  C   UNL     1      23.900  11.640  18.680  1.00  0.00     0.042 A 
ATOM      6  C   UNL     1      22.786  11.298  19.420  1.00  0.00     0.129 A 
ATOM      7  F   UNL     1      21.557  11.715  19.020  1.00  0.00    -0.207 F 
ENDROOT
BRANCH   1   8
ATOM      8  C   UNL     1      21.656  10.110  21.374  1.00  0.00     0.105 C 
ATOM      9  C   UNL     1      20.784  11.252  21.845  1.00  0.00     0.195 C 
ATOM     10  N   UNL     1      22.010   9.250  22.503  1.00  0.00    -0.240 NA
ATOM     11  S   UNL     1      21.673  12.298  22.969  1.00  0.00     0.239 S 
ATOM     12  C   UNL     1      22.452   9.740  23.620  1.00  0.00     0.205 C 
ATOM     13  O   UNL     1      20.684  12.903  23.843  1.00  0.00    -0.206 OA
ATOM     14  N   UNL     1      22.522  11.123  23.898  1.00  0.00    -0.243 N 
ATOM     15  O   UNL     1      22.710  13.024  22.306  1.00  0.00    -0.206 OA
ATOM     16  N   UNL     1      22.870   8.944  24.652  1.00  0.00    -0.369 N 
ATOM     17  C   UNL     1      20.777   9.199  20.513  1.00  0.00     0.044 C 
ATOM     18  C   UNL     1      23.142  11.668  25.123  1.00  0.00     0.167 C 
ATOM     19  H   UNL     1      22.859   7.965  24.554  1.00  0.00     0.159 HD
ATOM     20  H   UNL     1      23.182   9.351  25.493  1.00  0.00     0.159 HD
ENDBRANCH   1   8
BRANCH   3  21
ATOM     21  N   UNL     1      26.513  10.058  20.746  1.00  0.00    -0.321 N 
ATOM     22  C   UNL     1      27.624  10.809  21.083  1.00  0.00     0.274 C 
ATOM     23  O   UNL     1      27.755  12.008  20.872  1.00  0.00    -0.267 OA
ATOM     24  H   UNL     1      26.596   9.086  20.873  1.00  0.00     0.170 HD
BRANCH  22  25
ATOM     25  C   UNL     1      28.700  10.068  21.785  1.00  0.00     0.128 A 
ATOM     26  N   UNL     1      29.677  10.807  22.321  1.00  0.00    -0.248 NA
ATOM     27  C   UNL     1      28.649   8.687  21.865  1.00  0.00     0.037 A 
ATOM     28  C   UNL     1      30.665  10.157  22.958  1.00  0.00     0.151 A 
ATOM     29  C   UNL     1      29.678   8.047  22.533  1.00  0.00     0.043 A 
ATOM     30  C   UNL     1      30.705   8.787  23.085  1.00  0.00     0.141 A 
ATOM     31  F   UNL     1      31.720   8.210  23.750  1.00  0.00    -0.205 F 
ENDBRANCH  22  25
ENDBRANCH   3  21
TORSDOF 3
ENDMDL
MODEL 2
REMARK VINA RESULT:    -8.476      4.573      7.507
REMARK INTER + INTRA:         -10.283
REMARK INTER:                  -9.879
REMARK INTRA:                  -0.405
REMARK UNBOUND:                -0.321
REMARK SMILES CN1C(N)=N[C@](C)(c2cc(NC(=O)c3ccc(F)cn3)ccc2F)CS1(=O)=O
REMARK SMILES IDX 8 1 9 2 10 3 21 4 22 5 23 6 24 7 6 8 25 9 5 10 26 11 3 12
REMARK SMILES IDX 27 13 2 14 28 15 4 16 7 17 1 18 11 21 12 22 13 23 14 25
REMARK SMILES IDX 20 26 15 27 19 28 16 29 17 30 18 31
REMARK H PARENT 4 19 4 20 11 24
ROOT
ATOM      1  C   UNL     1      20.500  12.488  26.959  1.00  0.00     0.018 A 
ATOM      2  C   UNL     1      20.929  12.723  25.653  1.00  0.00     0.035 A 
ATOM      3  C   UNL     1      21.292  11.704  24.803  1.00  0.00     0.042 A 
ATOM      4  C   UNL     1      21.264  10.384  25.234  1.00  0.00     0.029 A 
ATOM      5  C   UNL     1      20.837  10.131  26.526  1.00  0.00     0.042 A 
ATOM      6  C   UNL     1      20.445  11.161  27.358  1.00  0.00     0.129 A 
ATOM      7  F   UNL     1      20.003  10.883  28.611  1.00  0.00    -0.207 F 
ENDROOT
BRANCH   1   8
ATOM      8  C   UNL     1      20.102  13.635  27.874  1.00  0.00     0.105 C 
ATOM      9  C   UNL     1      18.763  13.474  28.559  1.00  0.00     0.195 C 
ATOM     10  N   UNL     1      20.165  14.927  27.193  1.00  0.00    -0.240 NA
ATOM     11  S   UNL     1      17.449  13.440  27.366  1.00  0.00     0.239 S 
ATOM     12  C   UNL     1      19.202  15.343  26.429  1.00  0.00     0.205 C 
ATOM     13  O   UNL     1      16.265  13.942  28.040  1.00  0.00    -0.206 OA
ATOM     14  N   UNL     1      17.973  14.664  26.275  1.00  0.00    -0.243 N 
ATOM     15  O   UNL     1      17.481  12.246  26.580  1.00  0.00    -0.206 OA
ATOM     16  N   UNL     1      19.286  16.509  25.716  1.00  0.00    -0.369 N 
ATOM     17  C   UNL     1      21.156  13.777  28.976  1.00  0.00     0.044 C 
ATOM     18  C   UNL     1      16.938  15.084  25.310  1.00  0.00     0.167 C 
ATOM     19  H   UNL     1      20.105  17.054  25.759  1.00  0.00     0.159 HD
ATOM     20  H   UNL     1      18.528  16.803  25.161  1.00  0.00     0.159 HD
ENDBRANCH   1   8
BRANCH   3  21
ATOM     21  N   UNL     1      21.707  12.077  23.517  1.00  0.00    -0.321 N 
ATOM     22  C   UNL     1      22.972  12.449  23.100  1.00  0.00     0.274 C 
ATOM     23  O   UNL     1      23.930  12.640  23.838  1.00  0.00    -0.267 OA
ATOM     24  H   UNL     1      21.009  12.073  22.823  1.00  0.00     0.170 HD
BRANCH  22  25
ATOM     25  C   UNL     1      23.141  12.583  21.632  1.00  0.00     0.128 A 
ATOM     26  N   UNL     1      24.399  12.628  21.182  1.00  0.00    -0.248 NA
ATOM     27  C   UNL     1      22.028  12.642  20.811  1.00  0.00     0.037 A 
ATOM     28  C   UNL     1      24.576  12.753  19.856  1.00  0.00     0.151 A 
ATOM     29  C   UNL     1      22.243  12.764  19.450  1.00  0.00     0.043 A 
ATOM     30  C   UNL     1      23.534  12.826  18.960  1.00  0.00     0.141 A 
ATOM     31  F   UNL     1      23.792  12.935  17.646  1.00  0.00    -0.205 F 
ENDBRANCH  22  25
ENDBRANCH   3  21
TORSDOF 3
ENDMDL
MODEL 3
REMARK VINA RESULT:    -8.350      3.340      6.938
REMARK INTER + INTRA:         -10.135
REMARK INTER:                  -9.720
REMARK INTRA:                  -0.414
REMARK UNBOUND:                -0.321
REMARK SMILES CN1C(N)=N[C@](C)(c2cc(NC(=O)c3ccc(F)cn3)ccc2F)CS1(=O)=O
REMARK SMILES IDX 8 1 9 2 10 3 21 4 22 5 23 6 24 7 6 8 25 9 5 10 26 11 3 12
REMARK SMILES IDX 27 13 2 14 28 15 4 16 7 17 1 18 11 21 12 22 13 23 14 25
REMARK SMILES IDX 20 26 15 27 19 28 16 29 17 30 18 31
REMARK H PARENT 4 19 4 20 11 24
ROOT
ATOM      1  C   UNL     1      24.048  12.366  19.969  1.00  0.00     0.018 A 
ATOM      2  C   UNL     1      23.575  12.613  21.257  1.00  0.00     0.035 A 
ATOM      3  C   UNL     1      22.459  11.986  21.764  1.00  0.00     0.042 A 
ATOM      4  C   UNL     1      21.742  11.087  20.985  1.00  0.00     0.029 A 
ATOM      5  C   UNL     1      22.199  10.827  19.705  1.00  0.00     0.042 A 
ATOM      6  C   UNL     1      23.338  11.439  19.221  1.00  0.00     0.129 A 
ATOM      7  F   UNL     1      23.782  11.144  17.972  1.00  0.00    -0.207 F 
ENDROOT
BRANCH   1   8
ATOM      8  C   UNL     1      25.286  13.071  19.438  1.00  0.00     0.105 C 
ATOM      9  C   UNL     1      26.391  12.155  18.961  1.00  0.00     0.195 C 
ATOM     10  N   UNL     1      25.817  14.041  20.395  1.00  0.00    -0.240 NA
ATOM     11  S   UNL     1      27.028  11.187  20.306  1.00  0.00     0.239 S 
ATOM     12  C   UNL     1      26.577  13.680  21.382  1.00  0.00     0.205 C 
ATOM     13  O   UNL     1      28.407  10.877  19.976  1.00  0.00    -0.206 OA
ATOM     14  N   UNL     1      27.057  12.363  21.563  1.00  0.00    -0.243 N 
ATOM     15  O   UNL     1      26.074  10.224  20.761  1.00  0.00    -0.206 OA
ATOM     16  N   UNL     1      27.008  14.564  22.334  1.00  0.00    -0.369 N 
ATOM     17  C   UNL     1      24.884  13.947  18.248  1.00  0.00     0.044 C 
ATOM     18  C   UNL     1      27.816  11.941  22.756  1.00  0.00     0.167 C 
ATOM     19  H   UNL     1      26.727  15.507  22.293  1.00  0.00     0.159 HD
ATOM     20  H   UNL     1      27.599  14.257  23.059  1.00  0.00     0.159 HD
ENDBRANCH   1   8
BRANCH   3  21
ATOM     21  N   UNL     1      22.088  12.326  23.072  1.00  0.00    -0.321 N 
ATOM     22  C   UNL     1      22.340  11.632  24.242  1.00  0.00     0.274 C 
ATOM     23  O   UNL     1      22.833  10.513  24.305  1.00  0.00    -0.267 OA
ATOM     24  H   UNL     1      21.584  13.166  23.170  1.00  0.00     0.170 HD
BRANCH  22  25
ATOM     25  C   UNL     1      22.003  12.355  25.492  1.00  0.00     0.128 A 
ATOM     26  N   UNL     1      23.019  12.606  26.324  1.00  0.00    -0.248 NA
ATOM     27  C   UNL     1      20.697  12.740  25.737  1.00  0.00     0.037 A 
ATOM     28  C   UNL     1      22.738  13.256  27.465  1.00  0.00     0.151 A 
ATOM     29  C   UNL     1      20.439  13.414  26.918  1.00  0.00     0.043 A 
ATOM     30  C   UNL     1      21.470  13.674  27.800  1.00  0.00     0.141 A 
ATOM     31  F   UNL     1      21.269  14.332  28.955  1.00  0.00    -0.205 F 
ENDBRANCH  22  25
ENDBRANCH   3  21
TORSDOF 3
ENDMDL
MODEL 4
REMARK VINA RESULT:    -8.292      3.570      7.203
REMARK INTER + INTRA:         -10.067
REMARK INTER:                  -9.737
REMARK INTRA:                  -0.329
REMARK UNBOUND:                -0.321
REMARK SMILES CN1C(N)=N[C@](C)(c2cc(NC(=O)c3ccc(F)cn3)ccc2F)CS1(=O)=O
REMARK SMILES IDX 8 1 9 2 10 3 21 4 22 5 23 6 24 7 6 8 25 9 5 10 26 11 3 12
REMARK SMILES IDX 27 13 2 14 28 15 4 16 7 17 1 18 11 21 12 22 13 23 14 25
REMARK SMILES IDX 20 26 15 27 19 28 16 29 17 30 18 31
REMARK H PARENT 4 19 4 20 11 24
ROOT
ATOM      1  C   UNL     1      22.336  11.746  20.783  1.00  0.00     0.018 A 
ATOM      2  C   UNL     1      22.327  12.151  22.117  1.00  0.00     0.035 A 
ATOM      3  C   UNL     1      21.571  11.514  23.075  1.00  0.00     0.042 A 
ATOM      4  C   UNL     1      20.761  10.439  22.731  1.00  0.00     0.029 A 
ATOM      5  C   UNL     1      20.760  10.021  21.412  1.00  0.00     0.042 A 
ATOM      6  C   UNL     1      21.548  10.650  20.468  1.00  0.00     0.129 A 
ATOM      7  F   UNL     1      21.551  10.202  19.186  1.00  0.00    -0.207 F 
ENDROOT
BRANCH   1   8
ATOM      8  C   UNL     1      23.184  12.470  19.748  1.00  0.00     0.105 C 
ATOM      9  C   UNL     1      23.989  11.570  18.837  1.00  0.00     0.195 C 
ATOM     10  N   UNL     1      24.053  13.475  20.357  1.00  0.00    -0.240 NA
ATOM     11  S   UNL     1      25.190  10.651  19.765  1.00  0.00     0.239 S 
ATOM     12  C   UNL     1      25.185  13.156  20.905  1.00  0.00     0.205 C 
ATOM     13  O   UNL     1      26.286  10.367  18.857  1.00  0.00    -0.206 OA
ATOM     14  N   UNL     1      25.738  11.856  20.865  1.00  0.00    -0.243 N 
ATOM     15  O   UNL     1      24.571   9.675  20.608  1.00  0.00    -0.206 OA
ATOM     16  N   UNL     1      25.966  14.072  21.556  1.00  0.00    -0.369 N 
ATOM     17  C   UNL     1      22.265  13.308  18.854  1.00  0.00     0.044 C 
ATOM     18  C   UNL     1      26.963  11.481  21.598  1.00  0.00     0.167 C 
ATOM     19  H   UNL     1      25.666  15.007  21.635  1.00  0.00     0.159 HD
ATOM     20  H   UNL     1      26.829  13.798  21.943  1.00  0.00     0.159 HD
ENDBRANCH   1   8
BRANCH   3  21
ATOM     21  N   UNL     1      21.650  12.022  24.378  1.00  0.00    -0.321 N 
ATOM     22  C   UNL     1      20.693  12.733  25.080  1.00  0.00     0.274 C 
ATOM     23  O   UNL     1      19.642  13.151  24.612  1.00  0.00    -0.267 OA
ATOM     24  H   UNL     1      22.495  11.852  24.854  1.00  0.00     0.170 HD
BRANCH  22  25
ATOM     25  C   UNL     1      20.993  12.950  26.516  1.00  0.00     0.128 A 
ATOM     26  N   UNL     1      20.715  14.164  27.003  1.00  0.00    -0.248 NA
ATOM     27  C   UNL     1      21.521  11.920  27.275  1.00  0.00     0.037 A 
ATOM     28  C   UNL     1      20.982  14.386  28.300  1.00  0.00     0.151 A 
ATOM     29  C   UNL     1      21.779  12.177  28.610  1.00  0.00     0.043 A 
ATOM     30  C   UNL     1      21.512  13.427  29.134  1.00  0.00     0.141 A 
ATOM     31  F   UNL     1      21.738  13.721  30.426  1.00  0.00    -0.205 F 
ENDBRANCH  22  25
ENDBRANCH   3  21
TORSDOF 3
ENDMDL
MODEL 5
REMARK VINA RESULT:    -8.191      3.732      6.935
REMARK INTER + INTRA:          -9.949
REMARK INTER:                 -10.507
REMARK INTRA:                   0.559
REMARK UNBOUND:                -0.321
REMARK SMILES CN1C(N)=N[C@](C)(c2cc(NC(=O)c3ccc(F)cn3)ccc2F)CS1(=O)=O
REMARK SMILES IDX 8 1 9 2 10 3 21 4 22 5 23 6 24 7 6 8 25 9 5 10 26 11 3 12
REMARK SMILES IDX 27 13 2 14 28 15 4 16 7 17 1 18 11 21 12 22 13 23 14 25
REMARK SMILES IDX 20 26 15 27 19 28 16 29 17 30 18 31
REMARK H PARENT 4 19 4 20 11 24
ROOT
ATOM      1  C   UNL     1      24.361  12.093  20.368  1.00  0.00     0.018 A 
ATOM      2  C   UNL     1      23.989  11.938  21.703  1.00  0.00     0.035 A 
ATOM      3  C   UNL     1      22.736  12.276  22.162  1.00  0.00     0.042 A 
ATOM      4  C   UNL     1      21.791  12.814  21.297  1.00  0.00     0.029 A 
ATOM      5  C   UNL     1      22.142  12.971  19.968  1.00  0.00     0.042 A 
ATOM      6  C   UNL     1      23.392  12.598  19.515  1.00  0.00     0.129 A 
ATOM      7  F   UNL     1      23.701  12.735  18.200  1.00  0.00    -0.207 F 
ENDROOT
BRANCH   1   8
ATOM      8  C   UNL     1      25.752  11.707  19.891  1.00  0.00     0.105 C 
ATOM      9  C   UNL     1      26.859  11.928  20.898  1.00  0.00     0.195 C 
ATOM     10  N   UNL     1      26.094  12.345  18.621  1.00  0.00    -0.240 NA
ATOM     11  S   UNL     1      27.030  13.654  21.273  1.00  0.00     0.239 S 
ATOM     12  C   UNL     1      26.531  13.566  18.568  1.00  0.00     0.205 C 
ATOM     13  O   UNL     1      28.415  13.859  21.658  1.00  0.00    -0.206 OA
ATOM     14  N   UNL     1      26.828  14.344  19.709  1.00  0.00    -0.243 N 
ATOM     15  O   UNL     1      25.909  14.147  22.011  1.00  0.00    -0.206 OA
ATOM     16  N   UNL     1      26.770  14.205  17.381  1.00  0.00    -0.369 N 
ATOM     17  C   UNL     1      25.758  10.217  19.538  1.00  0.00     0.044 C 
ATOM     18  C   UNL     1      27.205  15.770  19.634  1.00  0.00     0.167 C 
ATOM     19  H   UNL     1      26.593  13.744  16.530  1.00  0.00     0.159 HD
ATOM     20  H   UNL     1      27.119  15.126  17.379  1.00  0.00     0.159 HD
ENDBRANCH   1   8
BRANCH   3  21
ATOM     21  N   UNL     1      22.491  12.073  23.526  1.00  0.00    -0.321 N 
ATOM     22  C   UNL     1      23.227  12.528  24.606  1.00  0.00     0.274 C 
ATOM     23  O   UNL     1      24.312  13.090  24.532  1.00  0.00    -0.267 OA
ATOM     24  H   UNL     1      21.694  11.539  23.745  1.00  0.00     0.170 HD
BRANCH  22  25
ATOM     25  C   UNL     1      22.595  12.327  25.933  1.00  0.00     0.128 A 
ATOM     26  N   UNL     1      23.119  13.020  26.950  1.00  0.00    -0.248 NA
ATOM     27  C   UNL     1      21.518  11.468  26.062  1.00  0.00     0.037 A 
ATOM     28  C   UNL     1      22.566  12.851  28.162  1.00  0.00     0.151 A 
ATOM     29  C   UNL     1      20.966  11.320  27.322  1.00  0.00     0.043 A 
ATOM     30  C   UNL     1      21.497  12.015  28.392  1.00  0.00     0.141 A 
ATOM     31  F   UNL     1      20.989  11.911  29.632  1.00  0.00    -0.205 F 
ENDBRANCH  22  25
ENDBRANCH   3  21
TORSDOF 3
ENDMDL
MODEL 6
REMARK VINA RESULT:    -8.004      3.676      7.411
REMARK INTER + INTRA:          -9.728
REMARK INTER:                  -9.373
REMARK INTRA:                  -0.355
REMARK UNBOUND:                -0.321
REMARK SMILES CN1C(N)=N[C@](C)(c2cc(NC(=O)c3ccc(F)cn3)ccc2F)CS1(=O)=O
REMARK SMILES IDX 8 1 9 2 10 3 21 4 22 5 23 6 24 7 6 8 25 9 5 10 26 11 3 12
REMARK SMILES IDX 27 13 2 14 28 15 4 16 7 17 1 18 11 21 12 22 13 23 14 25
REMARK SMILES IDX 20 26 15 27 19 28 16 29 17 30 18 31
REMARK H PARENT 4 19 4 20 11 24
ROOT
ATOM      1  C   UNL     1      26.025  12.700  20.363  1.00  0.00     0.018 A 
ATOM      2  C   UNL     1      25.119  12.714  21.423  1.00  0.00     0.035 A 
ATOM      3  C   UNL     1      24.212  11.700  21.630  1.00  0.00     0.042 A 
ATOM      4  C   UNL     1      24.155  10.619  20.759  1.00  0.00     0.029 A 
ATOM      5  C   UNL     1      25.049  10.586  19.704  1.00  0.00     0.042 A 
ATOM      6  C   UNL     1      25.975  11.595  19.527  1.00  0.00     0.129 A 
ATOM      7  F   UNL     1      26.860  11.525  18.500  1.00  0.00    -0.207 F 
ENDROOT
BRANCH   1   8
ATOM      8  C   UNL     1      27.017  13.835  20.163  1.00  0.00     0.105 C 
ATOM      9  C   UNL     1      28.472  13.422  20.168  1.00  0.00     0.195 C 
ATOM     10  N   UNL     1      26.801  14.926  21.111  1.00  0.00    -0.240 NA
ATOM     11  S   UNL     1      28.931  12.765  21.752  1.00  0.00     0.239 S 
ATOM     12  C   UNL     1      27.264  14.879  22.322  1.00  0.00     0.205 C 
ATOM     13  O   UNL     1      30.353  13.016  21.908  1.00  0.00    -0.206 OA
ATOM     14  N   UNL     1      28.104  13.850  22.802  1.00  0.00    -0.243 N 
ATOM     15  O   UNL     1      28.306  11.504  22.001  1.00  0.00    -0.206 OA
ATOM     16  N   UNL     1      26.994  15.852  23.246  1.00  0.00    -0.369 N 
ATOM     17  C   UNL     1      26.744  14.497  18.809  1.00  0.00     0.044 C 
ATOM     18  C   UNL     1      28.520  13.744  24.215  1.00  0.00     0.167 C 
ATOM     19  H   UNL     1      26.417  16.613  23.005  1.00  0.00     0.159 HD
ATOM     20  H   UNL     1      27.378  15.792  24.151  1.00  0.00     0.159 HD
ENDBRANCH   1   8
BRANCH   3  21
ATOM     21  N   UNL     1      23.356  11.838  22.730  1.00  0.00    -0.321 N 
ATOM     22  C   UNL     1      22.086  12.386  22.765  1.00  0.00     0.274 C 
ATOM     23  O   UNL     1      21.545  12.969  21.834  1.00  0.00    -0.267 OA
ATOM     24  H   UNL     1      23.703  11.502  23.588  1.00  0.00     0.170 HD
BRANCH  22  25
ATOM     25  C   UNL     1      21.349  12.197  24.038  1.00  0.00     0.128 A 
ATOM     26  N   UNL     1      21.932  12.684  25.138  1.00  0.00    -0.248 NA
ATOM     27  C   UNL     1      20.123  11.554  24.037  1.00  0.00     0.037 A 
ATOM     28  C   UNL     1      21.285  12.521  26.304  1.00  0.00     0.151 A 
ATOM     29  C   UNL     1      19.479  11.406  25.253  1.00  0.00     0.043 A 
ATOM     30  C   UNL     1      20.065  11.890  26.406  1.00  0.00     0.141 A 
ATOM     31  F   UNL     1      19.473  11.778  27.607  1.00  0.00    -0.205 F 
ENDBRANCH  22  25
ENDBRANCH   3  21
TORSDOF 3
ENDMDL
MODEL 7
REMARK VINA RESULT:    -7.945      3.811      4.692
REMARK INTER + INTRA:          -9.659
REMARK INTER:                 -10.384
REMARK INTRA:                   0.725
REMARK UNBOUND:                -0.321
REMARK SMILES CN1C(N)=N[C@](C)(c2cc(NC(=O)c3ccc(F)cn3)ccc2F)CS1(=O)=O
REMARK SMILES IDX 8 1 9 2 10 3 21 4 22 5 23 6 24 7 6 8 25 9 5 10 26 11 3 12
REMARK SMILES IDX 27 13 2 14 28 15 4 16 7 17 1 18 11 21 12 22 13 23 14 25
REMARK SMILES IDX 20 26 15 27 19 28 16 29 17 30 18 31
REMARK H PARENT 4 19 4 20 11 24
ROOT
ATOM      1  C   UNL     1      24.096  12.127  20.687  1.00  0.00     0.018 A 
ATOM      2  C   UNL     1      24.699  12.914  21.667  1.00  0.00     0.035 A 
ATOM      3  C   UNL     1      26.026  12.777  22.008  1.00  0.00     0.042 A 
ATOM      4  C   UNL     1      26.816  11.817  21.389  1.00  0.00     0.029 A 
ATOM      5  C   UNL     1      26.235  11.029  20.411  1.00  0.00     0.042 A 
ATOM      6  C   UNL     1      24.911  11.199  20.057  1.00  0.00     0.129 A 
ATOM      7  F   UNL     1      24.373  10.432  19.074  1.00  0.00    -0.207 F 
ENDROOT
BRANCH   1   8
ATOM      8  C   UNL     1      22.628  12.304  20.331  1.00  0.00     0.105 C 
ATOM      9  C   UNL     1      21.803  13.041  21.362  1.00  0.00     0.195 C 
ATOM     10  N   UNL     1      21.989  11.033  19.992  1.00  0.00    -0.240 NA
ATOM     11  S   UNL     1      21.738  12.129  22.883  1.00  0.00     0.239 S 
ATOM     12  C   UNL     1      21.559  10.221  20.908  1.00  0.00     0.205 C 
ATOM     13  O   UNL     1      20.491  12.493  23.531  1.00  0.00    -0.206 OA
ATOM     14  N   UNL     1      21.554  10.524  22.288  1.00  0.00    -0.243 N 
ATOM     15  O   UNL     1      23.008  12.106  23.539  1.00  0.00    -0.206 OA
ATOM     16  N   UNL     1      21.039   8.991  20.608  1.00  0.00    -0.369 N 
ATOM     17  C   UNL     1      22.529  13.097  19.025  1.00  0.00     0.044 C 
ATOM     18  C   UNL     1      21.177   9.544  23.325  1.00  0.00     0.167 C 
ATOM     19  H   UNL     1      20.999   8.689  19.671  1.00  0.00     0.159 HD
ATOM     20  H   UNL     1      20.705   8.408  21.328  1.00  0.00     0.159 HD
ENDBRANCH   1   8
BRANCH   3  21
ATOM     21  N   UNL     1      26.507  13.629  23.011  1.00  0.00    -0.321 N 
ATOM     22  C   UNL     1      26.269  13.570  24.372  1.00  0.00     0.274 C 
ATOM     23  O   UNL     1      25.472  12.816  24.916  1.00  0.00    -0.267 OA
ATOM     24  H   UNL     1      27.090  14.363  22.708  1.00  0.00     0.170 HD
BRANCH  22  25
ATOM     25  C   UNL     1      27.091  14.486  25.199  1.00  0.00     0.128 A 
ATOM     26  N   UNL     1      28.373  14.146  25.365  1.00  0.00    -0.248 NA
ATOM     27  C   UNL     1      26.522  15.626  25.741  1.00  0.00     0.037 A 
ATOM     28  C   UNL     1      29.137  14.958  26.114  1.00  0.00     0.151 A 
ATOM     29  C   UNL     1      27.336  16.447  26.502  1.00  0.00     0.043 A 
ATOM     30  C   UNL     1      28.661  16.110  26.699  1.00  0.00     0.141 A 
ATOM     31  F   UNL     1      29.491  16.880  27.423  1.00  0.00    -0.205 F 
ENDBRANCH  22  25
ENDBRANCH   3  21
TORSDOF 3
ENDMDL
MODEL 8
REMARK VINA RESULT:    -7.845      4.205      5.127
REMARK INTER + INTRA:          -9.542
REMARK INTER:                  -9.143
REMARK INTRA:                  -0.398
REMARK UNBOUND:                -0.321
REMARK SMILES CN1C(N)=N[C@](C)(c2cc(NC(=O)c3ccc(F)cn3)ccc2F)CS1(=O)=O
REMARK SMILES IDX 8 1 9 2 10 3 21 4 22 5 23 6 24 7 6 8 25 9 5 10 26 11 3 12
REMARK SMILES IDX 27 13 2 14 28 15 4 16 7 17 1 18 11 21 12 22 13 23 14 25
REMARK SMILES IDX 20 26 15 27 19 28 16 29 17 30 18 31
REMARK H PARENT 4 19 4 20 11 24
ROOT
ATOM      1  C   UNL     1      26.052  12.234  19.979  1.00  0.00     0.018 A 
ATOM      2  C   UNL     1      26.348  12.762  21.235  1.00  0.00     0.035 A 
ATOM      3  C   UNL     1      27.146  13.872  21.398  1.00  0.00     0.042 A 
ATOM      4  C   UNL     1      27.710  14.500  20.295  1.00  0.00     0.029 A 
ATOM      5  C   UNL     1      27.425  13.992  19.040  1.00  0.00     0.042 A 
ATOM      6  C   UNL     1      26.597  12.897  18.890  1.00  0.00     0.129 A 
ATOM      7  F   UNL     1      26.309  12.436  17.646  1.00  0.00    -0.207 F 
ENDROOT
BRANCH   1   8
ATOM      8  C   UNL     1      25.165  11.008  19.831  1.00  0.00     0.105 C 
ATOM      9  C   UNL     1      23.991  11.176  18.892  1.00  0.00     0.195 C 
ATOM     10  N   UNL     1      24.705  10.504  21.125  1.00  0.00    -0.240 NA
ATOM     11  S   UNL     1      22.870  12.409  19.504  1.00  0.00     0.239 S 
ATOM     12  C   UNL     1      23.692  11.031  21.740  1.00  0.00     0.205 C 
ATOM     13  O   UNL     1      21.556  12.064  18.992  1.00  0.00    -0.206 OA
ATOM     14  N   UNL     1      22.874  12.041  21.186  1.00  0.00    -0.243 N 
ATOM     15  O   UNL     1      23.440  13.718  19.439  1.00  0.00    -0.206 OA
ATOM     16  N   UNL     1      23.306  10.628  22.990  1.00  0.00    -0.369 N 
ATOM     17  C   UNL     1      26.009   9.849  19.292  1.00  0.00     0.044 C 
ATOM     18  C   UNL     1      21.804  12.716  21.945  1.00  0.00     0.167 C 
ATOM     19  H   UNL     1      23.814   9.928  23.460  1.00  0.00     0.159 HD
ATOM     20  H   UNL     1      22.521  11.038  23.420  1.00  0.00     0.159 HD
ENDBRANCH   1   8
BRANCH   3  21
ATOM     21  N   UNL     1      27.366  14.298  22.714  1.00  0.00    -0.321 N 
ATOM     22  C   UNL     1      28.296  13.826  23.623  1.00  0.00     0.274 C 
ATOM     23  O   UNL     1      29.008  12.844  23.457  1.00  0.00    -0.267 OA
ATOM     24  H   UNL     1      26.786  15.027  23.032  1.00  0.00     0.170 HD
BRANCH  22  25
ATOM     25  C   UNL     1      28.428  14.624  24.867  1.00  0.00     0.128 A 
ATOM     26  N   UNL     1      29.619  14.586  25.471  1.00  0.00    -0.248 NA
ATOM     27  C   UNL     1      27.352  15.360  25.332  1.00  0.00     0.037 A 
ATOM     28  C   UNL     1      29.762  15.298  26.602  1.00  0.00     0.151 A 
ATOM     29  C   UNL     1      27.531  16.088  26.495  1.00  0.00     0.043 A 
ATOM     30  C   UNL     1      28.750  16.056  27.146  1.00  0.00     0.141 A 
ATOM     31  F   UNL     1      28.973  16.753  28.273  1.00  0.00    -0.205 F 
ENDBRANCH  22  25
ENDBRANCH   3  21
TORSDOF 3
ENDMDL
MODEL 9
REMARK VINA RESULT:    -7.776      4.489      6.507
REMARK INTER + INTRA:          -9.461
REMARK INTER:                 -10.259
REMARK INTRA:                   0.798
REMARK UNBOUND:                -0.321
REMARK SMILES CN1C(N)=N[C@](C)(c2cc(NC(=O)c3ccc(F)cn3)ccc2F)CS1(=O)=O
REMARK SMILES IDX 8 1 9 2 10 3 21 4 22 5 23 6 24 7 6 8 25 9 5 10 26 11 3 12
REMARK SMILES IDX 27 13 2 14 28 15 4 16 7 17 1 18 11 21 12 22 13 23 14 25
REMARK SMILES IDX 20 26 15 27 19 28 16 29 17 30 18 31
REMARK H PARENT 4 19 4 20 11 24
ROOT
ATOM      1  C   UNL     1      19.356  12.181  25.053  1.00  0.00     0.018 A 
ATOM      2  C   UNL     1      20.299  12.547  24.094  1.00  0.00     0.035 A 
ATOM      3  C   UNL     1      20.757  11.669  23.138  1.00  0.00     0.042 A 
ATOM      4  C   UNL     1      20.300  10.357  23.112  1.00  0.00     0.029 A 
ATOM      5  C   UNL     1      19.361   9.977  24.055  1.00  0.00     0.042 A 
ATOM      6  C   UNL     1      18.887  10.878  24.987  1.00  0.00     0.129 A 
ATOM      7  F   UNL     1      17.944  10.488  25.882  1.00  0.00    -0.207 F 
ENDROOT
BRANCH   1   8
ATOM      8  C   UNL     1      18.868  13.177  26.094  1.00  0.00     0.105 C 
ATOM      9  C   UNL     1      19.816  14.319  26.383  1.00  0.00     0.195 C 
ATOM     10  N   UNL     1      18.479  12.520  27.341  1.00  0.00    -0.240 NA
ATOM     11  S   UNL     1      21.329  13.715  27.086  1.00  0.00     0.239 S 
ATOM     12  C   UNL     1      19.355  12.178  28.234  1.00  0.00     0.205 C 
ATOM     13  O   UNL     1      21.860  14.786  27.909  1.00  0.00    -0.206 OA
ATOM     14  N   UNL     1      20.728  12.504  28.152  1.00  0.00    -0.243 N 
ATOM     15  O   UNL     1      22.098  12.978  26.132  1.00  0.00    -0.206 OA
ATOM     16  N   UNL     1      19.015  11.484  29.364  1.00  0.00    -0.369 N 
ATOM     17  C   UNL     1      17.554  13.796  25.608  1.00  0.00     0.044 C 
ATOM     18  C   UNL     1      21.732  12.003  29.111  1.00  0.00     0.167 C 
ATOM     19  H   UNL     1      18.081  11.212  29.511  1.00  0.00     0.159 HD
ATOM     20  H   UNL     1      19.705  11.258  30.029  1.00  0.00     0.159 HD
ENDBRANCH   1   8
BRANCH   3  21
ATOM     21  N   UNL     1      21.707  12.163  22.235  1.00  0.00    -0.321 N 
ATOM     22  C   UNL     1      22.568  11.449  21.420  1.00  0.00     0.274 C 
ATOM     23  O   UNL     1      22.727  10.235  21.456  1.00  0.00    -0.267 OA
ATOM     24  H   UNL     1      21.770  13.143  22.171  1.00  0.00     0.170 HD
BRANCH  22  25
ATOM     25  C   UNL     1      23.308  12.255  20.420  1.00  0.00     0.128 A 
ATOM     26  N   UNL     1      24.569  12.573  20.729  1.00  0.00    -0.248 NA
ATOM     27  C   UNL     1      22.690  12.627  19.238  1.00  0.00     0.037 A 
ATOM     28  C   UNL     1      25.258  13.306  19.840  1.00  0.00     0.151 A 
ATOM     29  C   UNL     1      23.427  13.377  18.339  1.00  0.00     0.043 A 
ATOM     30  C   UNL     1      24.729  13.729  18.641  1.00  0.00     0.141 A 
ATOM     31  F   UNL     1      25.486  14.448  17.796  1.00  0.00    -0.205 F 
ENDBRANCH  22  25
ENDBRANCH   3  21
TORSDOF 3
ENDMDL
MODEL 10
REMARK VINA RESULT:    -7.717      5.506      8.389
REMARK INTER + INTRA:          -9.392
REMARK INTER:                  -9.052
REMARK INTRA:                  -0.340
REMARK UNBOUND:                -0.321
REMARK SMILES CN1C(N)=N[C@](C)(c2cc(NC(=O)c3ccc(F)cn3)ccc2F)CS1(=O)=O
REMARK SMILES IDX 8 1 9 2 10 3 21 4 22 5 23 6 24 7 6 8 25 9 5 10 26 11 3 12
REMARK SMILES IDX 27 13 2 14 28 15 4 16 7 17 1 18 11 21 12 22 13 23 14 25
REMARK SMILES IDX 20 26 15 27 19 28 16 29 17 30 18 31
REMARK H PARENT 4 19 4 20 11 24
ROOT
ATOM      1  C   UNL     1      20.082  14.113  26.880  1.00  0.00     0.018 A 
ATOM      2  C   UNL     1      20.052  13.458  25.650  1.00  0.00     0.035 A 
ATOM      3  C   UNL     1      20.870  12.388  25.365  1.00  0.00     0.042 A 
ATOM      4  C   UNL     1      21.786  11.933  26.305  1.00  0.00     0.029 A 
ATOM      5  C   UNL     1      21.828  12.569  27.533  1.00  0.00     0.042 A 
ATOM      6  C   UNL     1      20.978  13.620  27.816  1.00  0.00     0.129 A 
ATOM      7  F   UNL     1      21.019  14.208  29.040  1.00  0.00    -0.207 F 
ENDROOT
BRANCH   1   8
ATOM      8  C   UNL     1      19.163  15.290  27.166  1.00  0.00     0.105 C 
ATOM      9  C   UNL     1      18.221  15.098  28.334  1.00  0.00     0.195 C 
ATOM     10  N   UNL     1      18.413  15.701  25.980  1.00  0.00    -0.240 NA
ATOM     11  S   UNL     1      17.085  13.773  28.014  1.00  0.00     0.239 S 
ATOM     12  C   UNL     1      17.334  15.086  25.608  1.00  0.00     0.205 C 
ATOM     13  O   UNL     1      15.884  14.063  28.776  1.00  0.00    -0.206 OA
ATOM     14  N   UNL     1      16.718  14.058  26.356  1.00  0.00    -0.243 N 
ATOM     15  O   UNL     1      17.744  12.504  28.005  1.00  0.00    -0.206 OA
ATOM     16  N   UNL     1      16.672  15.404  24.452  1.00  0.00    -0.369 N 
ATOM     17  C   UNL     1      20.018  16.521  27.476  1.00  0.00     0.044 C 
ATOM     18  C   UNL     1      15.563  13.283  25.861  1.00  0.00     0.167 C 
ATOM     19  H   UNL     1      17.024  16.110  23.862  1.00  0.00     0.159 HD
ATOM     20  H   UNL     1      15.845  14.928  24.211  1.00  0.00     0.159 HD
ENDBRANCH   1   8
BRANCH   3  21
ATOM     21  N   UNL     1      20.742  11.822  24.090  1.00  0.00    -0.321 N 
ATOM     22  C   UNL     1      21.598  11.939  23.009  1.00  0.00     0.274 C 
ATOM     23  O   UNL     1      22.569  12.683  22.958  1.00  0.00    -0.267 OA
ATOM     24  H   UNL     1      19.940  11.270  23.944  1.00  0.00     0.170 HD
BRANCH  22  25
ATOM     25  C   UNL     1      21.296  11.049  21.862  1.00  0.00     0.128 A 
ATOM     26  N   UNL     1      20.597   9.942  22.138  1.00  0.00    -0.248 NA
ATOM     27  C   UNL     1      21.725  11.390  20.591  1.00  0.00     0.037 A 
ATOM     28  C   UNL     1      20.315   9.118  21.116  1.00  0.00     0.151 A 
ATOM     29  C   UNL     1      21.413  10.524  19.558  1.00  0.00     0.043 A 
ATOM     30  C   UNL     1      20.703   9.368  19.819  1.00  0.00     0.141 A 
ATOM     31  F   UNL     1      20.370   8.502  18.847  1.00  0.00    -0.205 F 
ENDBRANCH  22  25
ENDBRANCH   3  21
TORSDOF 3
ENDMDL
MODEL 11
REMARK VINA RESULT:    -7.638      3.636      7.316
REMARK INTER + INTRA:          -9.298
REMARK INTER:                  -8.888
REMARK INTRA:                  -0.410
REMARK UNBOUND:                -0.321
REMARK SMILES CN1C(N)=N[C@](C)(c2cc(NC(=O)c3ccc(F)cn3)ccc2F)CS1(=O)=O
REMARK SMILES IDX 8 1 9 2 10 3 21 4 22 5 23 6 24 7 6 8 25 9 5 10 26 11 3 12
REMARK SMILES IDX 27 13 2 14 28 15 4 16 7 17 1 18 11 21 12 22 13 23 14 25
REMARK SMILES IDX 20 26 15 27 19 28 16 29 17 30 18 31
REMARK H PARENT 4 19 4 20 11 24
ROOT
ATOM      1  C   UNL     1      25.400  13.007  19.854  1.00  0.00     0.018 A 
ATOM      2  C   UNL     1      24.497  13.082  20.914  1.00  0.00     0.035 A 
ATOM      3  C   UNL     1      23.429  12.222  21.034  1.00  0.00     0.042 A 
ATOM      4  C   UNL     1      23.200  11.247  20.071  1.00  0.00     0.029 A 
ATOM      5  C   UNL     1      24.088  11.156  19.014  1.00  0.00     0.042 A 
ATOM      6  C   UNL     1      25.174  12.005  18.924  1.00  0.00     0.129 A 
ATOM      7  F   UNL     1      26.047  11.876  17.892  1.00  0.00    -0.207 F 
ENDROOT
BRANCH   1   8
ATOM      8  C   UNL     1      26.572  13.971  19.752  1.00  0.00     0.105 C 
ATOM      9  C   UNL     1      27.930  13.317  19.628  1.00  0.00     0.195 C 
ATOM     10  N   UNL     1      26.580  14.943  20.844  1.00  0.00    -0.240 NA
ATOM     11  S   UNL     1      28.310  12.379  21.087  1.00  0.00     0.239 S 
ATOM     12  C   UNL     1      27.061  14.650  22.013  1.00  0.00     0.205 C 
ATOM     13  O   UNL     1      29.757  12.358  21.200  1.00  0.00    -0.206 OA
ATOM     14  N   UNL     1      27.718  13.435  22.311  1.00  0.00    -0.243 N 
ATOM     15  O   UNL     1      27.478  11.222  21.202  1.00  0.00    -0.206 OA
ATOM     16  N   UNL     1      26.996  15.519  23.069  1.00  0.00    -0.369 N 
ATOM     17  C   UNL     1      26.382  14.850  18.513  1.00  0.00     0.044 C 
ATOM     18  C   UNL     1      28.149  13.066  23.674  1.00  0.00     0.167 C 
ATOM     19  H   UNL     1      26.556  16.393  22.960  1.00  0.00     0.159 HD
ATOM     20  H   UNL     1      27.388  15.270  23.937  1.00  0.00     0.159 HD
ENDBRANCH   1   8
BRANCH   3  21
ATOM     21  N   UNL     1      22.596  12.406  22.145  1.00  0.00    -0.321 N 
ATOM     22  C   UNL     1      22.469  11.601  23.263  1.00  0.00     0.274 C 
ATOM     23  O   UNL     1      22.988  10.502  23.403  1.00  0.00    -0.267 OA
ATOM     24  H   UNL     1      22.029  13.210  22.127  1.00  0.00     0.170 HD
BRANCH  22  25
ATOM     25  C   UNL     1      21.659  12.174  24.366  1.00  0.00     0.128 A 
ATOM     26  N   UNL     1      22.221  12.169  25.579  1.00  0.00    -0.248 NA
ATOM     27  C   UNL     1      20.398  12.683  24.105  1.00  0.00     0.037 A 
ATOM     28  C   UNL     1      21.505  12.679  26.594  1.00  0.00     0.151 A 
ATOM     29  C   UNL     1      19.688  13.207  25.171  1.00  0.00     0.043 A 
ATOM     30  C   UNL     1      20.242  13.203  26.436  1.00  0.00     0.141 A 
ATOM     31  F   UNL     1      19.593  13.708  27.499  1.00  0.00    -0.205 F 
ENDBRANCH  22  25
ENDBRANCH   3  21
TORSDOF 3
ENDMDL
MODEL 12
REMARK VINA RESULT:    -7.439      4.450      7.756
REMARK INTER + INTRA:          -9.065
REMARK INTER:                  -8.671
REMARK INTRA:                  -0.394
REMARK UNBOUND:                -0.321
REMARK SMILES CN1C(N)=N[C@](C)(c2cc(NC(=O)c3ccc(F)cn3)ccc2F)CS1(=O)=O
REMARK SMILES IDX 8 1 9 2 10 3 21 4 22 5 23 6 24 7 6 8 25 9 5 10 26 11 3 12
REMARK SMILES IDX 27 13 2 14 28 15 4 16 7 17 1 18 11 21 12 22 13 23 14 25
REMARK SMILES IDX 20 26 15 27 19 28 16 29 17 30 18 31
REMARK H PARENT 4 19 4 20 11 24
ROOT
ATOM      1  C   UNL     1      27.039  14.098  21.402  1.00  0.00     0.018 A 
ATOM      2  C   UNL     1      25.889  13.774  22.122  1.00  0.00     0.035 A 
ATOM      3  C   UNL     1      25.226  12.580  21.952  1.00  0.00     0.042 A 
ATOM      4  C   UNL     1      25.678  11.651  21.024  1.00  0.00     0.029 A 
ATOM      5  C   UNL     1      26.820  11.953  20.303  1.00  0.00     0.042 A 
ATOM      6  C   UNL     1      27.493  13.142  20.507  1.00  0.00     0.129 A 
ATOM      7  F   UNL     1      28.627  13.402  19.808  1.00  0.00    -0.207 F 
ENDROOT
BRANCH   1   8
ATOM      8  C   UNL     1      27.751  15.425  21.615  1.00  0.00     0.105 C 
ATOM      9  C   UNL     1      29.226  15.316  21.931  1.00  0.00     0.195 C 
ATOM     10  N   UNL     1      27.082  16.252  22.618  1.00  0.00    -0.240 NA
ATOM     11  S   UNL     1      29.477  14.477  23.475  1.00  0.00     0.239 S 
ATOM     12  C   UNL     1      27.271  16.069  23.888  1.00  0.00     0.205 C 
ATOM     13  O   UNL     1      30.730  14.971  24.017  1.00  0.00    -0.206 OA
ATOM     14  N   UNL     1      28.209  15.156  24.420  1.00  0.00    -0.243 N 
ATOM     15  O   UNL     1      29.132  13.092  23.384  1.00  0.00    -0.206 OA
ATOM     16  N   UNL     1      26.585  16.777  24.838  1.00  0.00    -0.369 N 
ATOM     17  C   UNL     1      27.626  16.263  20.340  1.00  0.00     0.044 C 
ATOM     18  C   UNL     1      28.324  14.870  25.864  1.00  0.00     0.167 C 
ATOM     19  H   UNL     1      25.909  17.439  24.566  1.00  0.00     0.159 HD
ATOM     20  H   UNL     1      26.768  16.624  25.794  1.00  0.00     0.159 HD
ENDBRANCH   1   8
BRANCH   3  21
ATOM     21  N   UNL     1      24.082  12.381  22.736  1.00  0.00    -0.321 N 
ATOM     22  C   UNL     1      22.756  12.508  22.364  1.00  0.00     0.274 C 
ATOM     23  O   UNL     1      22.364  12.953  21.292  1.00  0.00    -0.267 OA
ATOM     24  H   UNL     1      24.243  12.116  23.670  1.00  0.00     0.170 HD
BRANCH  22  25
ATOM     25  C   UNL     1      21.769  12.024  23.359  1.00  0.00     0.128 A 
ATOM     26  N   UNL     1      21.866  12.539  24.589  1.00  0.00    -0.248 NA
ATOM     27  C   UNL     1      20.812  11.096  22.988  1.00  0.00     0.037 A 
ATOM     28  C   UNL     1      20.986  12.112  25.510  1.00  0.00     0.151 A 
ATOM     29  C   UNL     1      19.915  10.680  23.957  1.00  0.00     0.043 A 
ATOM     30  C   UNL     1      20.002  11.188  25.239  1.00  0.00     0.141 A 
ATOM     31  F   UNL     1      19.149  10.821  26.210  1.00  0.00    -0.205 F 
ENDBRANCH  22  25
ENDBRANCH   3  21
TORSDOF 3
ENDMDL
MODEL 13
REMARK VINA RESULT:    -7.439      3.780      7.645
REMARK INTER + INTRA:          -9.064
REMARK INTER:                  -8.827
REMARK INTRA:                  -0.238
REMARK UNBOUND:                -0.321
REMARK SMILES CN1C(N)=N[C@](C)(c2cc(NC(=O)c3ccc(F)cn3)ccc2F)CS1(=O)=O
REMARK SMILES IDX 8 1 9 2 10 3 21 4 22 5 23 6 24 7 6 8 25 9 5 10 26 11 3 12
REMARK SMILES IDX 27 13 2 14 28 15 4 16 7 17 1 18 11 21 12 22 13 23 14 25
REMARK SMILES IDX 20 26 15 27 19 28 16 29 17 30 18 31
REMARK H PARENT 4 19 4 20 11 24
ROOT
ATOM      1  C   UNL     1      29.047  12.868  20.937  1.00  0.00     0.018 A 
ATOM      2  C   UNL     1      27.682  12.611  21.057  1.00  0.00     0.035 A 
ATOM      3  C   UNL     1      27.175  11.332  21.109  1.00  0.00     0.042 A 
ATOM      4  C   UNL     1      28.023  10.235  21.020  1.00  0.00     0.029 A 
ATOM      5  C   UNL     1      29.382  10.471  20.905  1.00  0.00     0.042 A 
ATOM      6  C   UNL     1      29.879  11.760  20.886  1.00  0.00     0.129 A 
ATOM      7  F   UNL     1      31.218  11.964  20.801  1.00  0.00    -0.207 F 
ENDROOT
BRANCH   1   8
ATOM      8  C   UNL     1      29.576  14.292  20.885  1.00  0.00     0.105 C 
ATOM      9  C   UNL     1      30.470  14.687  22.040  1.00  0.00     0.195 C 
ATOM     10  N   UNL     1      28.503  15.271  20.724  1.00  0.00    -0.240 NA
ATOM     11  S   UNL     1      29.570  14.651  23.569  1.00  0.00     0.239 S 
ATOM     12  C   UNL     1      27.799  15.683  21.733  1.00  0.00     0.205 C 
ATOM     13  O   UNL     1      30.208  15.613  24.448  1.00  0.00    -0.206 OA
ATOM     14  N   UNL     1      28.068  15.330  23.074  1.00  0.00    -0.243 N 
ATOM     15  O   UNL     1      29.231  13.315  23.951  1.00  0.00    -0.206 OA
ATOM     16  N   UNL     1      26.735  16.532  21.584  1.00  0.00    -0.369 N 
ATOM     17  C   UNL     1      30.396  14.468  19.603  1.00  0.00     0.044 C 
ATOM     18  C   UNL     1      27.186  15.706  24.197  1.00  0.00     0.167 C 
ATOM     19  H   UNL     1      26.469  16.835  20.686  1.00  0.00     0.159 HD
ATOM     20  H   UNL     1      26.235  16.838  22.375  1.00  0.00     0.159 HD
ENDBRANCH   1   8
BRANCH   3  21
ATOM     21  N   UNL     1      25.784  11.213  21.227  1.00  0.00    -0.321 N 
ATOM     22  C   UNL     1      24.881  10.751  20.287  1.00  0.00     0.274 C 
ATOM     23  O   UNL     1      25.150  10.486  19.123  1.00  0.00    -0.267 OA
ATOM     24  H   UNL     1      25.401  11.493  22.090  1.00  0.00     0.170 HD
BRANCH  22  25
ATOM     25  C   UNL     1      23.499  10.545  20.784  1.00  0.00     0.128 A 
ATOM     26  N   UNL     1      23.373  10.264  22.085  1.00  0.00    -0.248 NA
ATOM     27  C   UNL     1      22.428  10.657  19.915  1.00  0.00     0.037 A 
ATOM     28  C   UNL     1      22.131  10.069  22.558  1.00  0.00     0.151 A 
ATOM     29  C   UNL     1      21.160  10.457  20.433  1.00  0.00     0.043 A 
ATOM     30  C   UNL     1      21.004  10.153  21.772  1.00  0.00     0.141 A 
ATOM     31  F   UNL     1      19.793   9.959  22.321  1.00  0.00    -0.205 F 
ENDBRANCH  22  25
ENDBRANCH   3  21
TORSDOF 3
ENDMDL
MODEL 14
REMARK VINA RESULT:    -7.354      3.739      7.590
REMARK INTER + INTRA:          -8.964
REMARK INTER:                  -8.894
REMARK INTRA:                  -0.070
REMARK UNBOUND:                -0.321
REMARK SMILES CN1C(N)=N[C@](C)(c2cc(NC(=O)c3ccc(F)cn3)ccc2F)CS1(=O)=O
REMARK SMILES IDX 8 1 9 2 10 3 21 4 22 5 23 6 24 7 6 8 25 9 5 10 26 11 3 12
REMARK SMILES IDX 27 13 2 14 28 15 4 16 7 17 1 18 11 21 12 22 13 23 14 25
REMARK SMILES IDX 20 26 15 27 19 28 16 29 17 30 18 31
REMARK H PARENT 4 19 4 20 11 24
ROOT
ATOM      1  C   UNL     1      28.247  13.228  22.602  1.00  0.00     0.018 A 
ATOM      2  C   UNL     1      27.013  12.896  23.159  1.00  0.00     0.035 A 
ATOM      3  C   UNL     1      26.594  13.396  24.371  1.00  0.00     0.042 A 
ATOM      4  C   UNL     1      27.413  14.247  25.102  1.00  0.00     0.029 A 
ATOM      5  C   UNL     1      28.640  14.591  24.562  1.00  0.00     0.042 A 
ATOM      6  C   UNL     1      29.034  14.106  23.330  1.00  0.00     0.129 A 
ATOM      7  F   UNL     1      30.231  14.482  22.810  1.00  0.00    -0.207 F 
ENDROOT
BRANCH   1   8
ATOM      8  C   UNL     1      28.680  12.661  21.259  1.00  0.00     0.105 C 
ATOM      9  C   UNL     1      29.008  13.693  20.203  1.00  0.00     0.195 C 
ATOM     10  N   UNL     1      27.717  11.695  20.734  1.00  0.00    -0.240 NA
ATOM     11  S   UNL     1      27.569  14.645  19.789  1.00  0.00     0.239 S 
ATOM     12  C   UNL     1      26.645  12.072  20.108  1.00  0.00     0.205 C 
ATOM     13  O   UNL     1      27.748  15.091  18.419  1.00  0.00    -0.206 OA
ATOM     14  N   UNL     1      26.364  13.415  19.771  1.00  0.00    -0.243 N 
ATOM     15  O   UNL     1      27.172  15.497  20.866  1.00  0.00    -0.206 OA
ATOM     16  N   UNL     1      25.691  11.184  19.690  1.00  0.00    -0.369 N 
ATOM     17  C   UNL     1      29.939  11.813  21.463  1.00  0.00     0.044 C 
ATOM     18  C   UNL     1      25.085  13.843  19.170  1.00  0.00     0.167 C 
ATOM     19  H   UNL     1      25.798  10.223  19.878  1.00  0.00     0.159 HD
ATOM     20  H   UNL     1      24.899  11.505  19.201  1.00  0.00     0.159 HD
ENDBRANCH   1   8
BRANCH   3  21
ATOM     21  N   UNL     1      25.333  12.981  24.819  1.00  0.00    -0.321 N 
ATOM     22  C   UNL     1      24.199  12.723  24.069  1.00  0.00     0.274 C 
ATOM     23  O   UNL     1      24.081  12.946  22.872  1.00  0.00    -0.267 OA
ATOM     24  H   UNL     1      25.243  12.857  25.792  1.00  0.00     0.170 HD
BRANCH  22  25
ATOM     25  C   UNL     1      23.079  12.095  24.811  1.00  0.00     0.128 A 
ATOM     26  N   UNL     1      22.653  12.742  25.901  1.00  0.00    -0.248 NA
ATOM     27  C   UNL     1      22.528  10.909  24.358  1.00  0.00     0.037 A 
ATOM     28  C   UNL     1      21.642  12.190  26.592  1.00  0.00     0.151 A 
ATOM     29  C   UNL     1      21.484  10.369  25.087  1.00  0.00     0.043 A 
ATOM     30  C   UNL     1      21.034  11.012  26.224  1.00  0.00     0.141 A 
ATOM     31  F   UNL     1      20.017  10.530  26.959  1.00  0.00    -0.205 F 
ENDBRANCH  22  25
ENDBRANCH   3  21
TORSDOF 3
ENDMDL
MODEL 15
REMARK VINA RESULT:    -7.354      5.775      8.685
REMARK INTER + INTRA:          -8.964
REMARK INTER:                  -9.271
REMARK INTRA:                   0.307
REMARK UNBOUND:                -0.321
REMARK SMILES CN1C(N)=N[C@](C)(c2cc(NC(=O)c3ccc(F)cn3)ccc2F)CS1(=O)=O
REMARK SMILES IDX 8 1 9 2 10 3 21 4 22 5 23 6 24 7 6 8 25 9 5 10 26 11 3 12
REMARK SMILES IDX 27 13 2 14 28 15 4 16 7 17 1 18 11 21 12 22 13 23 14 25
REMARK SMILES IDX 20 26 15 27 19 28 16 29 17 30 18 31
REMARK H PARENT 4 19 4 20 11 24
ROOT
ATOM      1  C   UNL     1      17.548  13.557  26.236  1.00  0.00     0.018 A 
ATOM      2  C   UNL     1      18.390  13.232  25.173  1.00  0.00     0.035 A 
ATOM      3  C   UNL     1      19.661  12.739  25.365  1.00  0.00     0.042 A 
ATOM      4  C   UNL     1      20.162  12.567  26.649  1.00  0.00     0.029 A 
ATOM      5  C   UNL     1      19.339  12.881  27.716  1.00  0.00     0.042 A 
ATOM      6  C   UNL     1      18.055  13.345  27.509  1.00  0.00     0.129 A 
ATOM      7  F   UNL     1      17.257  13.618  28.573  1.00  0.00    -0.207 F 
ENDROOT
BRANCH   1   8
ATOM      8  C   UNL     1      16.148  14.097  25.991  1.00  0.00     0.105 C 
ATOM      9  C   UNL     1      16.018  15.031  24.809  1.00  0.00     0.195 C 
ATOM     10  N   UNL     1      15.584  14.720  27.188  1.00  0.00    -0.240 NA
ATOM     11  S   UNL     1      16.975  16.504  25.065  1.00  0.00     0.239 S 
ATOM     12  C   UNL     1      15.878  15.938  27.525  1.00  0.00     0.205 C 
ATOM     13  O   UNL     1      16.326  17.557  24.306  1.00  0.00    -0.206 OA
ATOM     14  N   UNL     1      16.659  16.806  26.731  1.00  0.00    -0.243 N 
ATOM     15  O   UNL     1      18.379  16.234  25.027  1.00  0.00    -0.206 OA
ATOM     16  N   UNL     1      15.428  16.503  28.688  1.00  0.00    -0.369 N 
ATOM     17  C   UNL     1      15.201  12.920  25.739  1.00  0.00     0.044 C 
ATOM     18  C   UNL     1      17.089  18.144  27.184  1.00  0.00     0.167 C 
ATOM     19  H   UNL     1      14.874  15.977  29.309  1.00  0.00     0.159 HD
ATOM     20  H   UNL     1      15.656  17.437  28.903  1.00  0.00     0.159 HD
ENDBRANCH   1   8
BRANCH   3  21
ATOM     21  N   UNL     1      20.404  12.455  24.212  1.00  0.00    -0.321 N 
ATOM     22  C   UNL     1      20.385  11.307  23.440  1.00  0.00     0.274 C 
ATOM     23  O   UNL     1      19.789  10.277  23.726  1.00  0.00    -0.267 OA
ATOM     24  H   UNL     1      21.019  13.164  23.912  1.00  0.00     0.170 HD
BRANCH  22  25
ATOM     25  C   UNL     1      21.130  11.391  22.160  1.00  0.00     0.128 A 
ATOM     26  N   UNL     1      21.255  10.252  21.471  1.00  0.00    -0.248 NA
ATOM     27  C   UNL     1      21.641  12.606  21.737  1.00  0.00     0.037 A 
ATOM     28  C   UNL     1      21.929  10.303  20.311  1.00  0.00     0.151 A 
ATOM     29  C   UNL     1      22.326  12.627  20.535  1.00  0.00     0.043 A 
ATOM     30  C   UNL     1      22.479  11.461  19.810  1.00  0.00     0.141 A 
ATOM     31  F   UNL     1      23.128  11.435  18.633  1.00  0.00    -0.205 F 
ENDBRANCH  22  25
ENDBRANCH   3  21
TORSDOF 3
ENDMDL
MODEL 16
REMARK VINA RESULT:    -7.281      3.621      7.267
REMARK INTER + INTRA:          -8.879
REMARK INTER:                  -9.303
REMARK INTRA:                   0.424
REMARK UNBOUND:                -0.321
REMARK SMILES CN1C(N)=N[C@](C)(c2cc(NC(=O)c3ccc(F)cn3)ccc2F)CS1(=O)=O
REMARK SMILES IDX 8 1 9 2 10 3 21 4 22 5 23 6 24 7 6 8 25 9 5 10 26 11 3 12
REMARK SMILES IDX 27 13 2 14 28 15 4 16 7 17 1 18 11 21 12 22 13 23 14 25
REMARK SMILES IDX 20 26 15 27 19 28 16 29 17 30 18 31
REMARK H PARENT 4 19 4 20 11 24
ROOT
ATOM      1  C   UNL     1      24.525  12.355  19.964  1.00  0.00     0.018 A 
ATOM      2  C   UNL     1      23.691  12.218  21.072  1.00  0.00     0.035 A 
ATOM      3  C   UNL     1      22.403  12.703  21.088  1.00  0.00     0.042 A 
ATOM      4  C   UNL     1      21.891  13.375  19.985  1.00  0.00     0.029 A 
ATOM      5  C   UNL     1      22.704  13.517  18.875  1.00  0.00     0.042 A 
ATOM      6  C   UNL     1      23.983  12.998  18.862  1.00  0.00     0.129 A 
ATOM      7  F   UNL     1      24.751  13.124  17.749  1.00  0.00    -0.207 F 
ENDROOT
BRANCH   1   8
ATOM      8  C   UNL     1      25.944  11.806  19.976  1.00  0.00     0.105 C 
ATOM      9  C   UNL     1      26.526  11.565  21.352  1.00  0.00     0.195 C 
ATOM     10  N   UNL     1      26.856  12.625  19.181  1.00  0.00    -0.240 NA
ATOM     11  S   UNL     1      26.681  13.093  22.242  1.00  0.00     0.239 S 
ATOM     12  C   UNL     1      27.387  13.710  19.655  1.00  0.00     0.205 C 
ATOM     13  O   UNL     1      27.778  12.918  23.177  1.00  0.00    -0.206 OA
ATOM     14  N   UNL     1      27.237  14.139  20.993  1.00  0.00    -0.243 N 
ATOM     15  O   UNL     1      25.403  13.630  22.595  1.00  0.00    -0.206 OA
ATOM     16  N   UNL     1      28.172  14.533  18.893  1.00  0.00    -0.369 N 
ATOM     17  C   UNL     1      25.960  10.462  19.241  1.00  0.00     0.044 C 
ATOM     18  C   UNL     1      27.742  15.436  21.484  1.00  0.00     0.167 C 
ATOM     19  H   UNL     1      28.336  14.318  17.946  1.00  0.00     0.159 HD
ATOM     20  H   UNL     1      28.573  15.339  19.292  1.00  0.00     0.159 HD
ENDBRANCH   1   8
BRANCH   3  21
ATOM     21  N   UNL     1      21.671  12.502  22.265  1.00  0.00    -0.321 N 
ATOM     22  C   UNL     1      20.913  11.402  22.627  1.00  0.00     0.274 C 
ATOM     23  O   UNL     1      20.652  10.456  21.895  1.00  0.00    -0.267 OA
ATOM     24  H   UNL     1      21.700  13.237  22.920  1.00  0.00     0.170 HD
BRANCH  22  25
ATOM     25  C   UNL     1      20.430  11.399  24.029  1.00  0.00     0.128 A 
ATOM     26  N   UNL     1      21.194  12.038  24.921  1.00  0.00    -0.248 NA
ATOM     27  C   UNL     1      19.242  10.765  24.349  1.00  0.00     0.037 A 
ATOM     28  C   UNL     1      20.779  12.045  26.198  1.00  0.00     0.151 A 
ATOM     29  C   UNL     1      18.838  10.795  25.672  1.00  0.00     0.043 A 
ATOM     30  C   UNL     1      19.616  11.439  26.615  1.00  0.00     0.141 A 
ATOM     31  F   UNL     1      19.259  11.501  27.909  1.00  0.00    -0.205 F 
ENDBRANCH  22  25
ENDBRANCH   3  21
TORSDOF 3
ENDMDL
MODEL 17
REMARK VINA RESULT:    -7.219      4.970      7.833
REMARK INTER + INTRA:          -8.806
REMARK INTER:                  -8.696
REMARK INTRA:                  -0.110
REMARK UNBOUND:                -0.321
REMARK SMILES CN1C(N)=N[C@](C)(c2cc(NC(=O)c3ccc(F)cn3)ccc2F)CS1(=O)=O
REMARK SMILES IDX 8 1 9 2 10 3 21 4 22 5 23 6 24 7 6 8 25 9 5 10 26 11 3 12
REMARK SMILES IDX 27 13 2 14 28 15 4 16 7 17 1 18 11 21 12 22 13 23 14 25
REMARK SMILES IDX 20 26 15 27 19 28 16 29 17 30 18 31
REMARK H PARENT 4 19 4 20 11 24
ROOT
ATOM      1  C   UNL     1      27.263  11.634  20.189  1.00  0.00     0.018 A 
ATOM      2  C   UNL     1      27.327  12.723  19.321  1.00  0.00     0.035 A 
ATOM      3  C   UNL     1      26.272  13.082  18.513  1.00  0.00     0.042 A 
ATOM      4  C   UNL     1      25.095  12.344  18.522  1.00  0.00     0.029 A 
ATOM      5  C   UNL     1      25.013  11.262  19.380  1.00  0.00     0.042 A 
ATOM      6  C   UNL     1      26.068  10.932  20.208  1.00  0.00     0.129 A 
ATOM      7  F   UNL     1      25.952   9.883  21.063  1.00  0.00    -0.207 F 
ENDROOT
BRANCH   1   8
ATOM      8  C   UNL     1      28.445  11.263  21.071  1.00  0.00     0.105 C 
ATOM      9  C   UNL     1      28.203  11.401  22.558  1.00  0.00     0.195 C 
ATOM     10  N   UNL     1      29.660  11.983  20.692  1.00  0.00    -0.240 NA
ATOM     11  S   UNL     1      27.898  13.096  22.989  1.00  0.00     0.239 S 
ATOM     12  C   UNL     1      29.884  13.198  21.087  1.00  0.00     0.205 C 
ATOM     13  O   UNL     1      28.328  13.256  24.367  1.00  0.00    -0.206 OA
ATOM     14  N   UNL     1      29.057  13.893  21.997  1.00  0.00    -0.243 N 
ATOM     15  O   UNL     1      26.642  13.551  22.482  1.00  0.00    -0.206 OA
ATOM     16  N   UNL     1      30.973  13.914  20.667  1.00  0.00    -0.369 N 
ATOM     17  C   UNL     1      28.817   9.801  20.811  1.00  0.00     0.044 C 
ATOM     18  C   UNL     1      29.256  15.316  22.340  1.00  0.00     0.167 C 
ATOM     19  H   UNL     1      31.609  13.514  20.031  1.00  0.00     0.159 HD
ATOM     20  H   UNL     1      31.121  14.828  21.002  1.00  0.00     0.159 HD
ENDBRANCH   1   8
BRANCH   3  21
ATOM     21  N   UNL     1      26.466  14.196  17.685  1.00  0.00    -0.321 N 
ATOM     22  C   UNL     1      26.915  15.457  18.035  1.00  0.00     0.274 C 
ATOM     23  O   UNL     1      27.096  15.846  19.182  1.00  0.00    -0.267 OA
ATOM     24  H   UNL     1      26.258  14.063  16.732  1.00  0.00     0.170 HD
BRANCH  22  25
ATOM     25  C   UNL     1      27.218  16.359  16.899  1.00  0.00     0.128 A 
ATOM     26  N   UNL     1      27.543  15.770  15.743  1.00  0.00    -0.248 NA
ATOM     27  C   UNL     1      27.146  17.731  17.067  1.00  0.00     0.037 A 
ATOM     28  C   UNL     1      27.826  16.567  14.700  1.00  0.00     0.151 A 
ATOM     29  C   UNL     1      27.437  18.526  15.973  1.00  0.00     0.043 A 
ATOM     30  C   UNL     1      27.788  17.941  14.771  1.00  0.00     0.141 A 
ATOM     31  F   UNL     1      28.070  18.672  13.679  1.00  0.00    -0.205 F 
ENDBRANCH  22  25
ENDBRANCH   3  21
TORSDOF 3
ENDMDL
MODEL 18
REMARK VINA RESULT:    -7.200      4.600      5.925
REMARK INTER + INTRA:          -8.783
REMARK INTER:                  -8.932
REMARK INTRA:                   0.149
REMARK UNBOUND:                -0.321
REMARK SMILES CN1C(N)=N[C@](C)(c2cc(NC(=O)c3ccc(F)cn3)ccc2F)CS1(=O)=O
REMARK SMILES IDX 8 1 9 2 10 3 21 4 22 5 23 6 24 7 6 8 25 9 5 10 26 11 3 12
REMARK SMILES IDX 27 13 2 14 28 15 4 16 7 17 1 18 11 21 12 22 13 23 14 25
REMARK SMILES IDX 20 26 15 27 19 28 16 29 17 30 18 31
REMARK H PARENT 4 19 4 20 11 24
ROOT
ATOM      1  C   UNL     1      21.285  11.654  25.782  1.00  0.00     0.018 A 
ATOM      2  C   UNL     1      22.555  12.203  25.956  1.00  0.00     0.035 A 
ATOM      3  C   UNL     1      23.435  12.368  24.911  1.00  0.00     0.042 A 
ATOM      4  C   UNL     1      23.088  11.965  23.628  1.00  0.00     0.029 A 
ATOM      5  C   UNL     1      21.830  11.422  23.436  1.00  0.00     0.042 A 
ATOM      6  C   UNL     1      20.945  11.292  24.488  1.00  0.00     0.129 A 
ATOM      7  F   UNL     1      19.705  10.783  24.267  1.00  0.00    -0.207 F 
ENDROOT
BRANCH   1   8
ATOM      8  C   UNL     1      20.333  11.488  26.956  1.00  0.00     0.105 C 
ATOM      9  C   UNL     1      18.901  11.891  26.683  1.00  0.00     0.195 C 
ATOM     10  N   UNL     1      20.823  12.159  28.159  1.00  0.00    -0.240 NA
ATOM     11  S   UNL     1      18.796  13.626  26.326  1.00  0.00     0.239 S 
ATOM     12  C   UNL     1      20.657  13.433  28.344  1.00  0.00     0.205 C 
ATOM     13  O   UNL     1      17.466  14.051  26.726  1.00  0.00    -0.206 OA
ATOM     14  N   UNL     1      19.903  14.260  27.483  1.00  0.00    -0.243 N 
ATOM     15  O   UNL     1      19.396  13.944  25.068  1.00  0.00    -0.206 OA
ATOM     16  N   UNL     1      21.187  14.090  29.422  1.00  0.00    -0.369 N 
ATOM     17  C   UNL     1      20.313  10.014  27.371  1.00  0.00     0.044 C 
ATOM     18  C   UNL     1      19.827  15.726  27.637  1.00  0.00     0.167 C 
ATOM     19  H   UNL     1      21.730  13.598  30.080  1.00  0.00     0.159 HD
ATOM     20  H   UNL     1      21.026  15.054  29.539  1.00  0.00     0.159 HD
ENDBRANCH   1   8
BRANCH   3  21
ATOM     21  N   UNL     1      24.681  12.928  25.223  1.00  0.00    -0.321 N 
ATOM     22  C   UNL     1      25.633  13.437  24.357  1.00  0.00     0.274 C 
ATOM     23  O   UNL     1      25.588  13.358  23.136  1.00  0.00    -0.267 OA
ATOM     24  H   UNL     1      24.907  12.966  26.180  1.00  0.00     0.170 HD
BRANCH  22  25
ATOM     25  C   UNL     1      26.758  14.154  25.003  1.00  0.00     0.128 A 
ATOM     26  N   UNL     1      27.987  13.811  24.605  1.00  0.00    -0.248 NA
ATOM     27  C   UNL     1      26.502  15.127  25.954  1.00  0.00     0.037 A 
ATOM     28  C   UNL     1      29.023  14.445  25.180  1.00  0.00     0.151 A 
ATOM     29  C   UNL     1      27.589  15.766  26.524  1.00  0.00     0.043 A 
ATOM     30  C   UNL     1      28.870  15.421  26.138  1.00  0.00     0.141 A 
ATOM     31  F   UNL     1      29.956  16.020  26.656  1.00  0.00    -0.205 F 
ENDBRANCH  22  25
ENDBRANCH   3  21
TORSDOF 3
ENDMDL
MODEL 19
REMARK VINA RESULT:    -7.194      4.531      7.872
REMARK INTER + INTRA:          -8.777
REMARK INTER:                  -8.685
REMARK INTRA:                  -0.091
REMARK UNBOUND:                -0.321
REMARK SMILES CN1C(N)=N[C@](C)(c2cc(NC(=O)c3ccc(F)cn3)ccc2F)CS1(=O)=O
REMARK SMILES IDX 8 1 9 2 10 3 21 4 22 5 23 6 24 7 6 8 25 9 5 10 26 11 3 12
REMARK SMILES IDX 27 13 2 14 28 15 4 16 7 17 1 18 11 21 12 22 13 23 14 25
REMARK SMILES IDX 20 26 15 27 19 28 16 29 17 30 18 31
REMARK H PARENT 4 19 4 20 11 24
ROOT
ATOM      1  C   UNL     1      27.407  15.509  19.797  1.00  0.00     0.018 A 
ATOM      2  C   UNL     1      26.312  14.773  20.248  1.00  0.00     0.035 A 
ATOM      3  C   UNL     1      25.589  13.946  19.420  1.00  0.00     0.042 A 
ATOM      4  C   UNL     1      25.920  13.832  18.075  1.00  0.00     0.029 A 
ATOM      5  C   UNL     1      27.006  14.552  17.610  1.00  0.00     0.042 A 
ATOM      6  C   UNL     1      27.742  15.354  18.460  1.00  0.00     0.129 A 
ATOM      7  F   UNL     1      28.822  16.027  17.985  1.00  0.00    -0.207 F 
ENDROOT
BRANCH   1   8
ATOM      8  C   UNL     1      28.188  16.412  20.738  1.00  0.00     0.105 C 
ATOM      9  C   UNL     1      29.650  16.058  20.900  1.00  0.00     0.195 C 
ATOM     10  N   UNL     1      27.550  16.522  22.048  1.00  0.00    -0.240 NA
ATOM     11  S   UNL     1      29.828  14.456  21.644  1.00  0.00     0.239 S 
ATOM     12  C   UNL     1      27.707  15.615  22.962  1.00  0.00     0.205 C 
ATOM     13  O   UNL     1      31.097  14.466  22.350  1.00  0.00    -0.206 OA
ATOM     14  N   UNL     1      28.583  14.514  22.833  1.00  0.00    -0.243 N 
ATOM     15  O   UNL     1      29.408  13.414  20.760  1.00  0.00    -0.206 OA
ATOM     16  N   UNL     1      27.046  15.661  24.159  1.00  0.00    -0.369 N 
ATOM     17  C   UNL     1      28.131  17.847  20.207  1.00  0.00     0.044 C 
ATOM     18  C   UNL     1      28.659  13.425  23.827  1.00  0.00     0.167 C 
ATOM     19  H   UNL     1      26.412  16.391  24.344  1.00  0.00     0.159 HD
ATOM     20  H   UNL     1      27.204  14.964  24.837  1.00  0.00     0.159 HD
ENDBRANCH   1   8
BRANCH   3  21
ATOM     21  N   UNL     1      24.510  13.265  19.999  1.00  0.00    -0.321 N 
ATOM     22  C   UNL     1      23.241  13.072  19.482  1.00  0.00     0.274 C 
ATOM     23  O   UNL     1      22.811  13.591  18.460  1.00  0.00    -0.267 OA
ATOM     24  H   UNL     1      24.676  12.874  20.887  1.00  0.00     0.170 HD
BRANCH  22  25
ATOM     25  C   UNL     1      22.385  12.127  20.240  1.00  0.00     0.128 A 
ATOM     26  N   UNL     1      22.133  10.953  19.652  1.00  0.00    -0.248 NA
ATOM     27  C   UNL     1      21.906  12.480  21.489  1.00  0.00     0.037 A 
ATOM     28  C   UNL     1      21.356  10.083  20.318  1.00  0.00     0.151 A 
ATOM     29  C   UNL     1      21.113  11.560  22.153  1.00  0.00     0.043 A 
ATOM     30  C   UNL     1      20.828  10.345  21.562  1.00  0.00     0.141 A 
ATOM     31  F   UNL     1      20.071   9.417  22.172  1.00  0.00    -0.205 F 
ENDBRANCH  22  25
ENDBRANCH   3  21
TORSDOF 3
ENDMDL
MODEL 20
REMARK VINA RESULT:    -7.176      3.815      7.658
REMARK INTER + INTRA:          -8.755
REMARK INTER:                  -9.188
REMARK INTRA:                   0.433
REMARK UNBOUND:                -0.321
REMARK SMILES CN1C(N)=N[C@](C)(c2cc(NC(=O)c3ccc(F)cn3)ccc2F)CS1(=O)=O
REMARK SMILES IDX 8 1 9 2 10 3 21 4 22 5 23 6 24 7 6 8 25 9 5 10 26 11 3 12
REMARK SMILES IDX 27 13 2 14 28 15 4 16 7 17 1 18 11 21 12 22 13 23 14 25
REMARK SMILES IDX 20 26 15 27 19 28 16 29 17 30 18 31
REMARK H PARENT 4 19 4 20 11 24
ROOT
ATOM      1  C   UNL     1      27.935  13.284  20.734  1.00  0.00     0.018 A 
ATOM      2  C   UNL     1      26.658  12.837  21.070  1.00  0.00     0.035 A 
ATOM      3  C   UNL     1      25.538  13.205  20.360  1.00  0.00     0.042 A 
ATOM      4  C   UNL     1      25.644  14.070  19.277  1.00  0.00     0.029 A 
ATOM      5  C   UNL     1      26.904  14.521  18.927  1.00  0.00     0.042 A 
ATOM      6  C   UNL     1      28.023  14.118  19.629  1.00  0.00     0.129 A 
ATOM      7  F   UNL     1      29.251  14.552  19.247  1.00  0.00    -0.207 F 
ENDROOT
BRANCH   1   8
ATOM      8  C   UNL     1      29.153  12.857  21.536  1.00  0.00     0.105 C 
ATOM      9  C   UNL     1      28.881  12.521  22.986  1.00  0.00     0.195 C 
ATOM     10  N   UNL     1      30.241  13.829  21.442  1.00  0.00    -0.240 NA
ATOM     11  S   UNL     1      28.307  13.953  23.863  1.00  0.00     0.239 S 
ATOM     12  C   UNL     1      30.266  14.898  22.177  1.00  0.00     0.205 C 
ATOM     13  O   UNL     1      28.695  13.772  25.251  1.00  0.00    -0.206 OA
ATOM     14  N   UNL     1      29.332  15.168  23.202  1.00  0.00    -0.243 N 
ATOM     15  O   UNL     1      26.998  14.342  23.439  1.00  0.00    -0.206 OA
ATOM     16  N   UNL     1      31.230  15.859  22.037  1.00  0.00    -0.369 N 
ATOM     17  C   UNL     1      29.755  11.605  20.892  1.00  0.00     0.044 C 
ATOM     18  C   UNL     1      29.299  16.444  23.944  1.00  0.00     0.167 C 
ATOM     19  H   UNL     1      31.927  15.760  21.348  1.00  0.00     0.159 HD
ATOM     20  H   UNL     1      31.228  16.649  22.625  1.00  0.00     0.159 HD
ENDBRANCH   1   8
BRANCH   3  21
ATOM     21  N   UNL     1      24.314  12.687  20.804  1.00  0.00    -0.321 N 
ATOM     22  C   UNL     1      23.436  11.861  20.125  1.00  0.00     0.274 C 
ATOM     23  O   UNL     1      23.534  11.546  18.947  1.00  0.00    -0.267 OA
ATOM     24  H   UNL     1      24.045  12.944  21.716  1.00  0.00     0.170 HD
BRANCH  22  25
ATOM     25  C   UNL     1      22.326  11.311  20.941  1.00  0.00     0.128 A 
ATOM     26  N   UNL     1      21.882  10.098  20.596  1.00  0.00    -0.248 NA
ATOM     27  C   UNL     1      21.816  12.044  21.998  1.00  0.00     0.037 A 
ATOM     28  C   UNL     1      20.873   9.581  21.317  1.00  0.00     0.151 A 
ATOM     29  C   UNL     1      20.782  11.482  22.726  1.00  0.00     0.043 A 
ATOM     30  C   UNL     1      20.297  10.235  22.382  1.00  0.00     0.141 A 
ATOM     31  F   UNL     1      19.301   9.646  23.065  1.00  0.00    -0.205 F 
ENDBRANCH  22  25
ENDBRANCH   3  21
TORSDOF 3
ENDMDL
