MODEL 1
REMARK VINA RESULT:    -9.182      0.000      0.000
REMARK INTER + INTRA:         -11.049
REMARK INTER:                 -10.792
REMARK INTRA:                  -0.257
REMARK UNBOUND:                -0.257
REMARK SMILES CN1C(N)=N[C@](C)(c2cc(NC(=O)c3ccc(F)cn3)ccc2F)CS1(=O)=O
REMARK SMILES IDX 8 1 9 2 10 3 21 4 22 5 23 6 24 7 6 8 25 9 5 10 26 11 3 12
REMARK SMILES IDX 27 13 2 14 28 15 4 16 7 17 1 18 11 21 12 22 13 23 14 25
REMARK SMILES IDX 20 26 15 27 19 28 16 29 17 30 18 31
REMARK H PARENT 4 19 4 20 11 24
ROOT
ATOM      1  C   UNL     1      24.727  12.491  21.043  1.00  0.00     0.018 A 
ATOM      2  C   UNL     1      24.034  12.247  22.228  1.00  0.00     0.035 A 
ATOM      3  C   UNL     1      23.399  11.052  22.476  1.00  0.00     0.042 A 
ATOM      4  C   UNL     1      23.411  10.038  21.526  1.00  0.00     0.029 A 
ATOM      5  C   UNL     1      24.097  10.261  20.346  1.00  0.00     0.042 A 
ATOM      6  C   UNL     1      24.757  11.454  20.124  1.00  0.00     0.129 A 
ATOM      7  F   UNL     1      25.448  11.637  18.969  1.00  0.00    -0.207 F 
ENDROOT
BRANCH   1   8
ATOM      8  C   UNL     1      25.421  13.822  20.799  1.00  0.00     0.105 C 
ATOM      9  C   UNL     1      26.904  13.729  20.517  1.00  0.00     0.195 C 
ATOM     10  N   UNL     1      25.174  14.776  21.880  1.00  0.00    -0.240 NA
ATOM     11  S   UNL     1      27.770  13.079  21.924  1.00  0.00     0.239 S 
ATOM     12  C   UNL     1      25.855  14.746  22.984  1.00  0.00     0.205 C 
ATOM     13  O   UNL     1      29.118  13.616  21.864  1.00  0.00    -0.206 OA
ATOM     14  N   UNL     1      26.955  13.888  23.206  1.00  0.00    -0.243 N 
ATOM     15  O   UNL     1      27.464  11.700  22.140  1.00  0.00    -0.206 OA
ATOM     16  N   UNL     1      25.575  15.574  24.037  1.00  0.00    -0.369 N 
ATOM     17  C   UNL     1      24.776  14.502  19.588  1.00  0.00     0.044 C 
ATOM     18  C   UNL     1      27.639  13.778  24.509  1.00  0.00     0.167 C 
ATOM     19  H   UNL     1      24.825  16.209  23.978  1.00  0.00     0.159 HD
ATOM     20  H   UNL     1      26.124  15.536  24.854  1.00  0.00     0.159 HD
ENDBRANCH   1   8
BRANCH   3  21
ATOM     21  N   UNL     1      22.736  10.937  23.705  1.00  0.00    -0.321 N 
ATOM     22  C   UNL     1      23.228  11.194  24.972  1.00  0.00     0.274 C 
ATOM     23  O   UNL     1      24.396  11.449  25.236  1.00  0.00    -0.267 OA
ATOM     24  H   UNL     1      21.800  10.634  23.661  1.00  0.00     0.170 HD
BRANCH  22  25
ATOM     25  C   UNL     1      22.218  11.183  26.058  1.00  0.00     0.128 A 
ATOM     26  N   UNL     1      22.637  11.586  27.262  1.00  0.00    -0.248 NA
ATOM     27  C   UNL     1      20.921  10.780  25.791  1.00  0.00     0.037 A 
ATOM     28  C   UNL     1      21.741  11.581  28.263  1.00  0.00     0.151 A 
ATOM     29  C   UNL     1      20.019  10.791  26.841  1.00  0.00     0.043 A 
ATOM     30  C   UNL     1      20.431  11.192  28.098  1.00  0.00     0.141 A 
ATOM     31  F   UNL     1      19.589  11.228  29.145  1.00  0.00    -0.205 F 
ENDBRANCH  22  25
ENDBRANCH   3  21
TORSDOF 3
ENDMDL
MODEL 2
REMARK VINA RESULT:    -8.709      1.329      1.370
REMARK INTER + INTRA:         -10.494
REMARK INTER:                 -10.155
REMARK INTRA:                  -0.339
REMARK UNBOUND:                -0.257
REMARK SMILES CN1C(N)=N[C@](C)(c2cc(NC(=O)c3ccc(F)cn3)ccc2F)CS1(=O)=O
REMARK SMILES IDX 8 1 9 2 10 3 21 4 22 5 23 6 24 7 6 8 25 9 5 10 26 11 3 12
REMARK SMILES IDX 27 13 2 14 28 15 4 16 7 17 1 18 11 21 12 22 13 23 14 25
REMARK SMILES IDX 20 26 15 27 19 28 16 29 17 30 18 31
REMARK H PARENT 4 19 4 20 11 24
ROOT
ATOM      1  C   UNL     1      24.766  12.385  21.295  1.00  0.00     0.018 A 
ATOM      2  C   UNL     1      24.292  12.475  22.603  1.00  0.00     0.035 A 
ATOM      3  C   UNL     1      23.429  11.546  23.139  1.00  0.00     0.042 A 
ATOM      4  C   UNL     1      22.977  10.480  22.371  1.00  0.00     0.029 A 
ATOM      5  C   UNL     1      23.440  10.373  21.072  1.00  0.00     0.042 A 
ATOM      6  C   UNL     1      24.330  11.295  20.557  1.00  0.00     0.129 A 
ATOM      7  F   UNL     1      24.792  11.151  19.289  1.00  0.00    -0.207 F 
ENDROOT
BRANCH   1   8
ATOM      8  C   UNL     1      25.721  13.426  20.733  1.00  0.00     0.105 C 
ATOM      9  C   UNL     1      27.028  12.878  20.204  1.00  0.00     0.195 C 
ATOM     10  N   UNL     1      25.978  14.506  21.685  1.00  0.00    -0.240 NA
ATOM     11  S   UNL     1      27.971  12.135  21.512  1.00  0.00     0.239 S 
ATOM     12  C   UNL     1      26.847  14.380  22.640  1.00  0.00     0.205 C 
ATOM     13  O   UNL     1      29.367  12.247  21.130  1.00  0.00    -0.206 OA
ATOM     14  N   UNL     1      27.699  13.263  22.784  1.00  0.00    -0.243 N 
ATOM     15  O   UNL     1      27.360  10.932  21.985  1.00  0.00    -0.206 OA
ATOM     16  N   UNL     1      27.034  15.348  23.590  1.00  0.00    -0.369 N 
ATOM     17  C   UNL     1      25.035  14.150  19.571  1.00  0.00     0.044 C 
ATOM     18  C   UNL     1      28.594  13.078  23.944  1.00  0.00     0.167 C 
ATOM     19  H   UNL     1      26.487  16.166  23.573  1.00  0.00     0.159 HD
ATOM     20  H   UNL     1      27.716  15.227  24.289  1.00  0.00     0.159 HD
ENDBRANCH   1   8
BRANCH   3  21
ATOM     21  N   UNL     1      23.027  11.754  24.465  1.00  0.00    -0.321 N 
ATOM     22  C   UNL     1      22.089  12.651  24.946  1.00  0.00     0.274 C 
ATOM     23  O   UNL     1      21.539  13.518  24.280  1.00  0.00    -0.267 OA
ATOM     24  H   UNL     1      23.468  11.190  25.141  1.00  0.00     0.170 HD
BRANCH  22  25
ATOM     25  C   UNL     1      21.731  12.486  26.375  1.00  0.00     0.128 A 
ATOM     26  N   UNL     1      22.747  12.475  27.244  1.00  0.00    -0.248 NA
ATOM     27  C   UNL     1      20.402  12.366  26.745  1.00  0.00     0.037 A 
ATOM     28  C   UNL     1      22.446  12.323  28.544  1.00  0.00     0.151 A 
ATOM     29  C   UNL     1      20.124  12.218  28.092  1.00  0.00     0.043 A 
ATOM     30  C   UNL     1      21.158  12.190  29.009  1.00  0.00     0.141 A 
ATOM     31  F   UNL     1      20.936  12.057  30.327  1.00  0.00    -0.205 F 
ENDBRANCH  22  25
ENDBRANCH   3  21
TORSDOF 3
ENDMDL
MODEL 3
REMARK VINA RESULT:    -8.554      2.402      3.798
REMARK INTER + INTRA:         -10.312
REMARK INTER:                 -10.031
REMARK INTRA:                  -0.281
REMARK UNBOUND:                -0.257
REMARK SMILES CN1C(N)=N[C@](C)(c2cc(NC(=O)c3ccc(F)cn3)ccc2F)CS1(=O)=O
REMARK SMILES IDX 8 1 9 2 10 3 21 4 22 5 23 6 24 7 6 8 25 9 5 10 26 11 3 12
REMARK SMILES IDX 27 13 2 14 28 15 4 16 7 17 1 18 11 21 12 22 13 23 14 25
REMARK SMILES IDX 20 26 15 27 19 28 16 29 17 30 18 31
REMARK H PARENT 4 19 4 20 11 24
ROOT
ATOM      1  C   UNL     1      26.911  13.111  22.947  1.00  0.00     0.018 A 
ATOM      2  C   UNL     1      25.833  12.732  23.746  1.00  0.00     0.035 A 
ATOM      3  C   UNL     1      25.642  13.235  25.012  1.00  0.00     0.042 A 
ATOM      4  C   UNL     1      26.548  14.138  25.554  1.00  0.00     0.029 A 
ATOM      5  C   UNL     1      27.622  14.528  24.775  1.00  0.00     0.042 A 
ATOM      6  C   UNL     1      27.784  14.039  23.493  1.00  0.00     0.129 A 
ATOM      7  F   UNL     1      28.831  14.460  22.738  1.00  0.00    -0.207 F 
ENDROOT
BRANCH   1   8
ATOM      8  C   UNL     1      27.093  12.538  21.550  1.00  0.00     0.105 C 
ATOM      9  C   UNL     1      27.158  13.565  20.441  1.00  0.00     0.195 C 
ATOM     10  N   UNL     1      26.087  11.524  21.237  1.00  0.00    -0.240 NA
ATOM     11  S   UNL     1      25.624  14.449  20.314  1.00  0.00     0.239 S 
ATOM     12  C   UNL     1      24.897  11.846  20.834  1.00  0.00     0.205 C 
ATOM     13  O   UNL     1      25.506  14.878  18.932  1.00  0.00    -0.206 OA
ATOM     14  N   UNL     1      24.495  13.170  20.548  1.00  0.00    -0.243 N 
ATOM     15  O   UNL     1      25.412  15.302  21.441  1.00  0.00    -0.206 OA
ATOM     16  N   UNL     1      23.919  10.911  20.623  1.00  0.00    -0.369 N 
ATOM     17  C   UNL     1      28.403  11.747  21.507  1.00  0.00     0.044 C 
ATOM     18  C   UNL     1      23.105  13.534  20.211  1.00  0.00     0.167 C 
ATOM     19  H   UNL     1      24.103   9.959  20.794  1.00  0.00     0.159 HD
ATOM     20  H   UNL     1      23.032  11.191  20.300  1.00  0.00     0.159 HD
ENDBRANCH   1   8
BRANCH   3  21
ATOM     21  N   UNL     1      24.520  12.770  25.710  1.00  0.00    -0.321 N 
ATOM     22  C   UNL     1      23.189  12.843  25.339  1.00  0.00     0.274 C 
ATOM     23  O   UNL     1      22.760  13.458  24.372  1.00  0.00    -0.267 OA
ATOM     24  H   UNL     1      24.702  12.335  26.575  1.00  0.00     0.170 HD
BRANCH  22  25
ATOM     25  C   UNL     1      22.251  12.072  26.191  1.00  0.00     0.128 A 
ATOM     26  N   UNL     1      22.605  11.913  27.470  1.00  0.00    -0.248 NA
ATOM     27  C   UNL     1      21.079  11.572  25.650  1.00  0.00     0.037 A 
ATOM     28  C   UNL     1      21.774  11.214  28.260  1.00  0.00     0.151 A 
ATOM     29  C   UNL     1      20.240  10.861  26.490  1.00  0.00     0.043 A 
ATOM     30  C   UNL     1      20.589  10.673  27.813  1.00  0.00     0.141 A 
ATOM     31  F   UNL     1      19.802   9.998  28.669  1.00  0.00    -0.205 F 
ENDBRANCH  22  25
ENDBRANCH   3  21
TORSDOF 3
ENDMDL
MODEL 4
REMARK VINA RESULT:    -8.368      3.619      7.234
REMARK INTER + INTRA:         -10.092
REMARK INTER:                 -10.386
REMARK INTRA:                   0.294
REMARK UNBOUND:                -0.257
REMARK SMILES CN1C(N)=N[C@](C)(c2cc(NC(=O)c3ccc(F)cn3)ccc2F)CS1(=O)=O
REMARK SMILES IDX 8 1 9 2 10 3 21 4 22 5 23 6 24 7 6 8 25 9 5 10 26 11 3 12
REMARK SMILES IDX 27 13 2 14 28 15 4 16 7 17 1 18 11 21 12 22 13 23 14 25
REMARK SMILES IDX 20 26 15 27 19 28 16 29 17 30 18 31
REMARK H PARENT 4 19 4 20 11 24
ROOT
ATOM      1  C   UNL     1      26.173  12.460  21.127  1.00  0.00     0.018 A 
ATOM      2  C   UNL     1      27.031  13.332  21.794  1.00  0.00     0.035 A 
ATOM      3  C   UNL     1      28.371  13.064  21.961  1.00  0.00     0.042 A 
ATOM      4  C   UNL     1      28.916  11.880  21.479  1.00  0.00     0.029 A 
ATOM      5  C   UNL     1      28.080  11.004  20.811  1.00  0.00     0.042 A 
ATOM      6  C   UNL     1      26.744  11.302  20.623  1.00  0.00     0.129 A 
ATOM      7  F   UNL     1      25.951  10.438  19.937  1.00  0.00    -0.207 F 
ENDROOT
BRANCH   1   8
ATOM      8  C   UNL     1      24.698  12.787  20.956  1.00  0.00     0.105 C 
ATOM      9  C   UNL     1      24.112  13.684  22.024  1.00  0.00     0.195 C 
ATOM     10  N   UNL     1      23.882  11.583  20.809  1.00  0.00    -0.240 NA
ATOM     11  S   UNL     1      24.164  12.887  23.609  1.00  0.00     0.239 S 
ATOM     12  C   UNL     1      23.499  10.890  21.836  1.00  0.00     0.205 C 
ATOM     13  O   UNL     1      23.068  13.438  24.386  1.00  0.00    -0.206 OA
ATOM     14  N   UNL     1      23.723  11.280  23.175  1.00  0.00    -0.243 N 
ATOM     15  O   UNL     1      25.504  12.756  24.090  1.00  0.00    -0.206 OA
ATOM     16  N   UNL     1      22.811   9.713  21.709  1.00  0.00    -0.369 N 
ATOM     17  C   UNL     1      24.502  13.500  19.615  1.00  0.00     0.044 C 
ATOM     18  C   UNL     1      23.392  10.422  24.330  1.00  0.00     0.167 C 
ATOM     19  H   UNL     1      22.606   9.357  20.814  1.00  0.00     0.159 HD
ATOM     20  H   UNL     1      22.520   9.222  22.511  1.00  0.00     0.159 HD
ENDBRANCH   1   8
BRANCH   3  21
ATOM     21  N   UNL     1      29.122  14.022  22.654  1.00  0.00    -0.321 N 
ATOM     22  C   UNL     1      29.357  14.108  24.014  1.00  0.00     0.274 C 
ATOM     23  O   UNL     1      28.823  13.410  24.867  1.00  0.00    -0.267 OA
ATOM     24  H   UNL     1      29.536  14.724  22.101  1.00  0.00     0.170 HD
BRANCH  22  25
ATOM     25  C   UNL     1      30.367  15.115  24.420  1.00  0.00     0.128 A 
ATOM     26  N   UNL     1      31.625  14.884  24.030  1.00  0.00    -0.248 NA
ATOM     27  C   UNL     1      29.981  16.224  25.154  1.00  0.00     0.037 A 
ATOM     28  C   UNL     1      32.558  15.781  24.389  1.00  0.00     0.151 A 
ATOM     29  C   UNL     1      30.965  17.133  25.504  1.00  0.00     0.043 A 
ATOM     30  C   UNL     1      32.274  16.910  25.123  1.00  0.00     0.141 A 
ATOM     31  F   UNL     1      33.260  17.769  25.432  1.00  0.00    -0.205 F 
ENDBRANCH  22  25
ENDBRANCH   3  21
TORSDOF 3
ENDMDL
MODEL 5
REMARK VINA RESULT:    -8.297      3.579      8.536
REMARK INTER + INTRA:         -10.010
REMARK INTER:                 -10.380
REMARK INTRA:                   0.371
REMARK UNBOUND:                -0.257
REMARK SMILES CN1C(N)=N[C@](C)(c2cc(NC(=O)c3ccc(F)cn3)ccc2F)CS1(=O)=O
REMARK SMILES IDX 8 1 9 2 10 3 21 4 22 5 23 6 24 7 6 8 25 9 5 10 26 11 3 12
REMARK SMILES IDX 27 13 2 14 28 15 4 16 7 17 1 18 11 21 12 22 13 23 14 25
REMARK SMILES IDX 20 26 15 27 19 28 16 29 17 30 18 31
REMARK H PARENT 4 19 4 20 11 24
ROOT
ATOM      1  C   UNL     1      20.972  12.090  27.409  1.00  0.00     0.018 A 
ATOM      2  C   UNL     1      21.607  11.993  26.172  1.00  0.00     0.035 A 
ATOM      3  C   UNL     1      22.763  12.682  25.882  1.00  0.00     0.042 A 
ATOM      4  C   UNL     1      23.332  13.529  26.824  1.00  0.00     0.029 A 
ATOM      5  C   UNL     1      22.718  13.635  28.059  1.00  0.00     0.042 A 
ATOM      6  C   UNL     1      21.576  12.913  28.347  1.00  0.00     0.129 A 
ATOM      7  F   UNL     1      21.009  13.012  29.577  1.00  0.00    -0.207 F 
ENDROOT
BRANCH   1   8
ATOM      8  C   UNL     1      19.698  11.313  27.701  1.00  0.00     0.105 C 
ATOM      9  C   UNL     1      18.923  10.872  26.479  1.00  0.00     0.195 C 
ATOM     10  N   UNL     1      18.817  12.030  28.622  1.00  0.00    -0.240 NA
ATOM     11  S   UNL     1      18.335  12.278  25.568  1.00  0.00     0.239 S 
ATOM     12  C   UNL     1      18.023  12.971  28.213  1.00  0.00     0.205 C 
ATOM     13  O   UNL     1      17.132  11.849  24.877  1.00  0.00    -0.206 OA
ATOM     14  N   UNL     1      17.843  13.311  26.854  1.00  0.00    -0.243 N 
ATOM     15  O   UNL     1      19.408  12.990  24.948  1.00  0.00    -0.206 OA
ATOM     16  N   UNL     1      17.259  13.709  29.076  1.00  0.00    -0.369 N 
ATOM     17  C   UNL     1      20.058  10.048  28.485  1.00  0.00     0.044 C 
ATOM     18  C   UNL     1      17.033  14.464  26.414  1.00  0.00     0.167 C 
ATOM     19  H   UNL     1      17.315  13.545  30.046  1.00  0.00     0.159 HD
ATOM     20  H   UNL     1      16.654  14.403  28.728  1.00  0.00     0.159 HD
ENDBRANCH   1   8
BRANCH   3  21
ATOM     21  N   UNL     1      23.298  12.498  24.600  1.00  0.00    -0.321 N 
ATOM     22  C   UNL     1      23.146  13.302  23.484  1.00  0.00     0.274 C 
ATOM     23  O   UNL     1      22.392  14.264  23.407  1.00  0.00    -0.267 OA
ATOM     24  H   UNL     1      23.853  11.694  24.478  1.00  0.00     0.170 HD
BRANCH  22  25
ATOM     25  C   UNL     1      24.009  12.954  22.330  1.00  0.00     0.128 A 
ATOM     26  N   UNL     1      25.271  12.614  22.615  1.00  0.00    -0.248 NA
ATOM     27  C   UNL     1      23.492  12.983  21.047  1.00  0.00     0.037 A 
ATOM     28  C   UNL     1      26.073  12.298  21.585  1.00  0.00     0.151 A 
ATOM     29  C   UNL     1      24.342  12.647  20.007  1.00  0.00     0.043 A 
ATOM     30  C   UNL     1      25.653  12.303  20.274  1.00  0.00     0.141 A 
ATOM     31  F   UNL     1      26.512  11.961  19.299  1.00  0.00    -0.205 F 
ENDBRANCH  22  25
ENDBRANCH   3  21
TORSDOF 3
ENDMDL
MODEL 6
REMARK VINA RESULT:    -8.153      2.640      3.947
REMARK INTER + INTRA:          -9.840
REMARK INTER:                  -9.812
REMARK INTRA:                  -0.028
REMARK UNBOUND:                -0.257
REMARK SMILES CN1C(N)=N[C@](C)(c2cc(NC(=O)c3ccc(F)cn3)ccc2F)CS1(=O)=O
REMARK SMILES IDX 8 1 9 2 10 3 21 4 22 5 23 6 24 7 6 8 25 9 5 10 26 11 3 12
REMARK SMILES IDX 27 13 2 14 28 15 4 16 7 17 1 18 11 21 12 22 13 23 14 25
REMARK SMILES IDX 20 26 15 27 19 28 16 29 17 30 18 31
REMARK H PARENT 4 19 4 20 11 24
ROOT
ATOM      1  C   UNL     1      26.844  12.956  22.987  1.00  0.00     0.018 A 
ATOM      2  C   UNL     1      25.593  12.715  23.552  1.00  0.00     0.035 A 
ATOM      3  C   UNL     1      25.266  13.130  24.823  1.00  0.00     0.042 A 
ATOM      4  C   UNL     1      26.200  13.796  25.607  1.00  0.00     0.029 A 
ATOM      5  C   UNL     1      27.447  14.046  25.062  1.00  0.00     0.042 A 
ATOM      6  C   UNL     1      27.749  13.653  23.773  1.00  0.00     0.129 A 
ATOM      7  F   UNL     1      28.970  13.937  23.251  1.00  0.00    -0.207 F 
ENDROOT
BRANCH   1   8
ATOM      8  C   UNL     1      27.173  12.487  21.578  1.00  0.00     0.105 C 
ATOM      9  C   UNL     1      27.333  13.591  20.557  1.00  0.00     0.195 C 
ATOM     10  N   UNL     1      26.219  11.490  21.095  1.00  0.00    -0.240 NA
ATOM     11  S   UNL     1      25.806  14.470  20.339  1.00  0.00     0.239 S 
ATOM     12  C   UNL     1      25.070  11.831  20.598  1.00  0.00     0.205 C 
ATOM     13  O   UNL     1      25.821  14.997  18.986  1.00  0.00    -0.206 OA
ATOM     14  N   UNL     1      24.679  13.169  20.368  1.00  0.00    -0.243 N 
ATOM     15  O   UNL     1      25.470  15.239  21.497  1.00  0.00    -0.206 OA
ATOM     16  N   UNL     1      24.133  10.906  20.224  1.00  0.00    -0.369 N 
ATOM     17  C   UNL     1      28.493  11.712  21.611  1.00  0.00     0.044 C 
ATOM     18  C   UNL     1      23.324  13.546  19.919  1.00  0.00     0.167 C 
ATOM     19  H   UNL     1      24.313   9.946  20.345  1.00  0.00     0.159 HD
ATOM     20  H   UNL     1      23.278  11.201  19.833  1.00  0.00     0.159 HD
ENDBRANCH   1   8
BRANCH   3  21
ATOM     21  N   UNL     1      23.976  12.822  25.272  1.00  0.00    -0.321 N 
ATOM     22  C   UNL     1      22.765  13.130  24.678  1.00  0.00     0.274 C 
ATOM     23  O   UNL     1      22.624  13.853  23.700  1.00  0.00    -0.267 OA
ATOM     24  H   UNL     1      23.924  12.322  26.119  1.00  0.00     0.170 HD
BRANCH  22  25
ATOM     25  C   UNL     1      21.578  12.482  25.286  1.00  0.00     0.128 A 
ATOM     26  N   UNL     1      20.409  13.109  25.118  1.00  0.00    -0.248 NA
ATOM     27  C   UNL     1      21.718  11.288  25.973  1.00  0.00     0.037 A 
ATOM     28  C   UNL     1      19.320  12.544  25.664  1.00  0.00     0.151 A 
ATOM     29  C   UNL     1      20.576  10.727  26.519  1.00  0.00     0.043 A 
ATOM     30  C   UNL     1      19.359  11.362  26.369  1.00  0.00     0.141 A 
ATOM     31  F   UNL     1      18.223  10.851  26.874  1.00  0.00    -0.205 F 
ENDBRANCH  22  25
ENDBRANCH   3  21
TORSDOF 3
ENDMDL
MODEL 7
REMARK VINA RESULT:    -8.132      2.606      3.111
REMARK INTER + INTRA:          -9.815
REMARK INTER:                 -10.114
REMARK INTRA:                   0.299
REMARK UNBOUND:                -0.257
REMARK SMILES CN1C(N)=N[C@](C)(c2cc(NC(=O)c3ccc(F)cn3)ccc2F)CS1(=O)=O
REMARK SMILES IDX 8 1 9 2 10 3 21 4 22 5 23 6 24 7 6 8 25 9 5 10 26 11 3 12
REMARK SMILES IDX 27 13 2 14 28 15 4 16 7 17 1 18 11 21 12 22 13 23 14 25
REMARK SMILES IDX 20 26 15 27 19 28 16 29 17 30 18 31
REMARK H PARENT 4 19 4 20 11 24
ROOT
ATOM      1  C   UNL     1      26.486  13.587  22.688  1.00  0.00     0.018 A 
ATOM      2  C   UNL     1      25.643  13.012  23.638  1.00  0.00     0.035 A 
ATOM      3  C   UNL     1      24.280  13.203  23.624  1.00  0.00     0.042 A 
ATOM      4  C   UNL     1      23.692  14.008  22.656  1.00  0.00     0.029 A 
ATOM      5  C   UNL     1      24.514  14.583  21.703  1.00  0.00     0.042 A 
ATOM      6  C   UNL     1      25.876  14.357  21.710  1.00  0.00     0.129 A 
ATOM      7  F   UNL     1      26.656  14.910  20.746  1.00  0.00    -0.207 F 
ENDROOT
BRANCH   1   8
ATOM      8  C   UNL     1      27.988  13.354  22.729  1.00  0.00     0.105 C 
ATOM      9  C   UNL     1      28.547  13.014  24.092  1.00  0.00     0.195 C 
ATOM     10  N   UNL     1      28.732  14.470  22.146  1.00  0.00    -0.240 NA
ATOM     11  S   UNL     1      28.322  14.367  25.219  1.00  0.00     0.239 S 
ATOM     12  C   UNL     1      28.988  15.546  22.823  1.00  0.00     0.205 C 
ATOM     13  O   UNL     1      29.388  14.272  26.199  1.00  0.00    -0.206 OA
ATOM     14  N   UNL     1      28.688  15.702  24.195  1.00  0.00    -0.243 N 
ATOM     15  O   UNL     1      26.943  14.556  25.546  1.00  0.00    -0.206 OA
ATOM     16  N   UNL     1      29.605  16.633  22.263  1.00  0.00    -0.369 N 
ATOM     17  C   UNL     1      28.334  12.188  21.798  1.00  0.00     0.044 C 
ATOM     18  C   UNL     1      28.872  16.975  24.920  1.00  0.00     0.167 C 
ATOM     19  H   UNL     1      29.855  16.620  21.311  1.00  0.00     0.159 HD
ATOM     20  H   UNL     1      29.800  17.426  22.813  1.00  0.00     0.159 HD
ENDBRANCH   1   8
BRANCH   3  21
ATOM     21  N   UNL     1      23.547  12.571  24.637  1.00  0.00    -0.321 N 
ATOM     22  C   UNL     1      23.288  13.026  25.918  1.00  0.00     0.274 C 
ATOM     23  O   UNL     1      23.782  14.025  26.424  1.00  0.00    -0.267 OA
ATOM     24  H   UNL     1      23.167  11.692  24.408  1.00  0.00     0.170 HD
BRANCH  22  25
ATOM     25  C   UNL     1      22.304  12.226  26.687  1.00  0.00     0.128 A 
ATOM     26  N   UNL     1      22.618  11.964  27.960  1.00  0.00    -0.248 NA
ATOM     27  C   UNL     1      21.133  11.804  26.081  1.00  0.00     0.037 A 
ATOM     28  C   UNL     1      21.743  11.237  28.675  1.00  0.00     0.151 A 
ATOM     29  C   UNL     1      20.249  11.062  26.846  1.00  0.00     0.043 A 
ATOM     30  C   UNL     1      20.556  10.768  28.160  1.00  0.00     0.141 A 
ATOM     31  F   UNL     1      19.725  10.060  28.944  1.00  0.00    -0.205 F 
ENDBRANCH  22  25
ENDBRANCH   3  21
TORSDOF 3
ENDMDL
MODEL 8
REMARK VINA RESULT:    -7.992      1.885      2.472
REMARK INTER + INTRA:          -9.651
REMARK INTER:                 -10.601
REMARK INTRA:                   0.950
REMARK UNBOUND:                -0.257
REMARK SMILES CN1C(N)=N[C@](C)(c2cc(NC(=O)c3ccc(F)cn3)ccc2F)CS1(=O)=O
REMARK SMILES IDX 8 1 9 2 10 3 21 4 22 5 23 6 24 7 6 8 25 9 5 10 26 11 3 12
REMARK SMILES IDX 27 13 2 14 28 15 4 16 7 17 1 18 11 21 12 22 13 23 14 25
REMARK SMILES IDX 20 26 15 27 19 28 16 29 17 30 18 31
REMARK H PARENT 4 19 4 20 11 24
ROOT
ATOM      1  C   UNL     1      25.615  11.575  21.342  1.00  0.00     0.018 A 
ATOM      2  C   UNL     1      25.110  11.710  22.634  1.00  0.00     0.035 A 
ATOM      3  C   UNL     1      23.856  11.265  22.985  1.00  0.00     0.042 A 
ATOM      4  C   UNL     1      23.029  10.675  22.038  1.00  0.00     0.029 A 
ATOM      5  C   UNL     1      23.514  10.529  20.751  1.00  0.00     0.042 A 
ATOM      6  C   UNL     1      24.787  10.952  20.421  1.00  0.00     0.129 A 
ATOM      7  F   UNL     1      25.251  10.771  19.157  1.00  0.00    -0.207 F 
ENDROOT
BRANCH   1   8
ATOM      8  C   UNL     1      27.006  12.075  20.986  1.00  0.00     0.105 C 
ATOM      9  C   UNL     1      27.724  12.815  22.093  1.00  0.00     0.195 C 
ATOM     10  N   UNL     1      27.005  12.878  19.764  1.00  0.00    -0.240 NA
ATOM     11  S   UNL     1      26.859  14.307  22.513  1.00  0.00     0.239 S 
ATOM     12  C   UNL     1      26.674  14.132  19.773  1.00  0.00     0.205 C 
ATOM     13  O   UNL     1      27.854  15.232  23.025  1.00  0.00    -0.206 OA
ATOM     14  N   UNL     1      26.402  14.865  20.950  1.00  0.00    -0.243 N 
ATOM     15  O   UNL     1      25.613  14.031  23.156  1.00  0.00    -0.206 OA
ATOM     16  N   UNL     1      26.583  14.872  18.624  1.00  0.00    -0.369 N 
ATOM     17  C   UNL     1      27.880  10.876  20.607  1.00  0.00     0.044 C 
ATOM     18  C   UNL     1      25.906  16.255  20.936  1.00  0.00     0.167 C 
ATOM     19  H   UNL     1      26.755  14.450  17.752  1.00  0.00     0.159 HD
ATOM     20  H   UNL     1      26.346  15.827  18.671  1.00  0.00     0.159 HD
ENDBRANCH   1   8
BRANCH   3  21
ATOM     21  N   UNL     1      23.469  11.464  24.317  1.00  0.00    -0.321 N 
ATOM     22  C   UNL     1      22.658  12.459  24.834  1.00  0.00     0.274 C 
ATOM     23  O   UNL     1      22.242  13.425  24.208  1.00  0.00    -0.267 OA
ATOM     24  H   UNL     1      23.819  10.813  24.968  1.00  0.00     0.170 HD
BRANCH  22  25
ATOM     25  C   UNL     1      22.261  12.279  26.252  1.00  0.00     0.128 A 
ATOM     26  N   UNL     1      22.460  13.325  27.060  1.00  0.00    -0.248 NA
ATOM     27  C   UNL     1      21.710  11.080  26.668  1.00  0.00     0.037 A 
ATOM     28  C   UNL     1      22.112  13.184  28.350  1.00  0.00     0.151 A 
ATOM     29  C   UNL     1      21.356  10.967  28.001  1.00  0.00     0.043 A 
ATOM     30  C   UNL     1      21.562  12.030  28.859  1.00  0.00     0.141 A 
ATOM     31  F   UNL     1      21.226  11.970  30.159  1.00  0.00    -0.205 F 
ENDBRANCH  22  25
ENDBRANCH   3  21
TORSDOF 3
ENDMDL
MODEL 9
REMARK VINA RESULT:    -7.829      3.424      8.533
REMARK INTER + INTRA:          -9.459
REMARK INTER:                 -10.032
REMARK INTRA:                   0.573
REMARK UNBOUND:                -0.257
REMARK SMILES CN1C(N)=N[C@](C)(c2cc(NC(=O)c3ccc(F)cn3)ccc2F)CS1(=O)=O
REMARK SMILES IDX 8 1 9 2 10 3 21 4 22 5 23 6 24 7 6 8 25 9 5 10 26 11 3 12
REMARK SMILES IDX 27 13 2 14 28 15 4 16 7 17 1 18 11 21 12 22 13 23 14 25
REMARK SMILES IDX 20 26 15 27 19 28 16 29 17 30 18 31
REMARK H PARENT 4 19 4 20 11 24
ROOT
ATOM      1  C   UNL     1      21.057  11.964  27.640  1.00  0.00     0.018 A 
ATOM      2  C   UNL     1      21.724  12.250  26.450  1.00  0.00     0.035 A 
ATOM      3  C   UNL     1      22.793  13.116  26.395  1.00  0.00     0.042 A 
ATOM      4  C   UNL     1      23.235  13.762  27.542  1.00  0.00     0.029 A 
ATOM      5  C   UNL     1      22.586  13.488  28.734  1.00  0.00     0.042 A 
ATOM      6  C   UNL     1      21.536  12.592  28.780  1.00  0.00     0.129 A 
ATOM      7  F   UNL     1      20.936  12.318  29.966  1.00  0.00    -0.207 F 
ENDROOT
BRANCH   1   8
ATOM      8  C   UNL     1      19.881  11.000  27.669  1.00  0.00     0.105 C 
ATOM      9  C   UNL     1      19.276  10.686  26.319  1.00  0.00     0.195 C 
ATOM     10  N   UNL     1      18.838  11.434  28.597  1.00  0.00    -0.240 NA
ATOM     11  S   UNL     1      18.578  12.146  25.590  1.00  0.00     0.239 S 
ATOM     12  C   UNL     1      17.959  12.328  28.265  1.00  0.00     0.205 C 
ATOM     13  O   UNL     1      17.506  11.701  24.718  1.00  0.00    -0.206 OA
ATOM     14  N   UNL     1      17.846  12.875  26.967  1.00  0.00    -0.243 N 
ATOM     15  O   UNL     1      19.590  13.080  25.207  1.00  0.00    -0.206 OA
ATOM     16  N   UNL     1      17.033  12.808  29.152  1.00  0.00    -0.369 N 
ATOM     17  C   UNL     1      20.346   9.672  28.273  1.00  0.00     0.044 C 
ATOM     18  C   UNL     1      16.924  13.979  26.636  1.00  0.00     0.167 C 
ATOM     19  H   UNL     1      17.031  12.487  30.083  1.00  0.00     0.159 HD
ATOM     20  H   UNL     1      16.369  13.473  28.859  1.00  0.00     0.159 HD
ENDBRANCH   1   8
BRANCH   3  21
ATOM     21  N   UNL     1      23.372  13.319  25.135  1.00  0.00    -0.321 N 
ATOM     22  C   UNL     1      24.234  12.485  24.445  1.00  0.00     0.274 C 
ATOM     23  O   UNL     1      24.740  11.466  24.895  1.00  0.00    -0.267 OA
ATOM     24  H   UNL     1      23.136  14.161  24.684  1.00  0.00     0.170 HD
BRANCH  22  25
ATOM     25  C   UNL     1      24.507  12.880  23.041  1.00  0.00     0.128 A 
ATOM     26  N   UNL     1      25.781  13.151  22.739  1.00  0.00    -0.248 NA
ATOM     27  C   UNL     1      23.471  12.940  22.126  1.00  0.00     0.037 A 
ATOM     28  C   UNL     1      26.053  13.515  21.475  1.00  0.00     0.151 A 
ATOM     29  C   UNL     1      23.783  13.312  20.830  1.00  0.00     0.043 A 
ATOM     30  C   UNL     1      25.090  13.609  20.496  1.00  0.00     0.141 A 
ATOM     31  F   UNL     1      25.443  13.966  19.249  1.00  0.00    -0.205 F 
ENDBRANCH  22  25
ENDBRANCH   3  21
TORSDOF 3
ENDMDL
MODEL 10
REMARK VINA RESULT:    -7.708      5.146      8.346
REMARK INTER + INTRA:          -9.317
REMARK INTER:                  -9.466
REMARK INTRA:                   0.149
REMARK UNBOUND:                -0.257
REMARK SMILES CN1C(N)=N[C@](C)(c2cc(NC(=O)c3ccc(F)cn3)ccc2F)CS1(=O)=O
REMARK SMILES IDX 8 1 9 2 10 3 21 4 22 5 23 6 24 7 6 8 25 9 5 10 26 11 3 12
REMARK SMILES IDX 27 13 2 14 28 15 4 16 7 17 1 18 11 21 12 22 13 23 14 25
REMARK SMILES IDX 20 26 15 27 19 28 16 29 17 30 18 31
REMARK H PARENT 4 19 4 20 11 24
ROOT
ATOM      1  C   UNL     1      19.690  11.462  27.269  1.00  0.00     0.018 A 
ATOM      2  C   UNL     1      18.809  10.826  26.395  1.00  0.00     0.035 A 
ATOM      3  C   UNL     1      17.576  11.352  26.082  1.00  0.00     0.042 A 
ATOM      4  C   UNL     1      17.153  12.544  26.655  1.00  0.00     0.029 A 
ATOM      5  C   UNL     1      18.015  13.190  27.522  1.00  0.00     0.042 A 
ATOM      6  C   UNL     1      19.263  12.668  27.803  1.00  0.00     0.129 A 
ATOM      7  F   UNL     1      20.102  13.337  28.634  1.00  0.00    -0.207 F 
ENDROOT
BRANCH   1   8
ATOM      8  C   UNL     1      21.047  10.857  27.593  1.00  0.00     0.105 C 
ATOM      9  C   UNL     1      22.192  11.844  27.642  1.00  0.00     0.195 C 
ATOM     10  N   UNL     1      21.379   9.746  26.703  1.00  0.00    -0.240 NA
ATOM     11  S   UNL     1      22.453  12.582  26.049  1.00  0.00     0.239 S 
ATOM     12  C   UNL     1      21.870   9.945  25.519  1.00  0.00     0.205 C 
ATOM     13  O   UNL     1      23.857  12.948  25.987  1.00  0.00    -0.206 OA
ATOM     14  N   UNL     1      22.237  11.216  25.023  1.00  0.00    -0.243 N 
ATOM     15  O   UNL     1      21.379  13.454  25.689  1.00  0.00    -0.206 OA
ATOM     16  N   UNL     1      22.103   8.919  24.642  1.00  0.00    -0.369 N 
ATOM     17  C   UNL     1      20.974  10.186  28.967  1.00  0.00     0.044 C 
ATOM     18  C   UNL     1      22.676  11.442  23.632  1.00  0.00     0.167 C 
ATOM     19  H   UNL     1      21.880   7.995  24.897  1.00  0.00     0.159 HD
ATOM     20  H   UNL     1      22.494   9.106  23.758  1.00  0.00     0.159 HD
ENDBRANCH   1   8
BRANCH   3  21
ATOM     21  N   UNL     1      16.786  10.612  25.192  1.00  0.00    -0.321 N 
ATOM     22  C   UNL     1      15.427  10.722  24.957  1.00  0.00     0.274 C 
ATOM     23  O   UNL     1      14.655  11.419  25.602  1.00  0.00    -0.267 OA
ATOM     24  H   UNL     1      17.259   9.926  24.667  1.00  0.00     0.170 HD
BRANCH  22  25
ATOM     25  C   UNL     1      14.919   9.943  23.802  1.00  0.00     0.128 A 
ATOM     26  N   UNL     1      13.745  10.332  23.294  1.00  0.00    -0.248 NA
ATOM     27  C   UNL     1      15.659   8.884  23.303  1.00  0.00     0.037 A 
ATOM     28  C   UNL     1      13.263   9.639  22.249  1.00  0.00     0.151 A 
ATOM     29  C   UNL     1      15.138   8.193  22.223  1.00  0.00     0.043 A 
ATOM     30  C   UNL     1      13.921   8.569  21.688  1.00  0.00     0.141 A 
ATOM     31  F   UNL     1      13.381   7.934  20.634  1.00  0.00    -0.205 F 
ENDBRANCH  22  25
ENDBRANCH   3  21
TORSDOF 3
ENDMDL
MODEL 11
REMARK VINA RESULT:    -7.662      2.663      3.465
REMARK INTER + INTRA:          -9.263
REMARK INTER:                  -9.608
REMARK INTRA:                   0.344
REMARK UNBOUND:                -0.257
REMARK SMILES CN1C(N)=N[C@](C)(c2cc(NC(=O)c3ccc(F)cn3)ccc2F)CS1(=O)=O
REMARK SMILES IDX 8 1 9 2 10 3 21 4 22 5 23 6 24 7 6 8 25 9 5 10 26 11 3 12
REMARK SMILES IDX 27 13 2 14 28 15 4 16 7 17 1 18 11 21 12 22 13 23 14 25
REMARK SMILES IDX 20 26 15 27 19 28 16 29 17 30 18 31
REMARK H PARENT 4 19 4 20 11 24
ROOT
ATOM      1  C   UNL     1      26.976  13.578  22.263  1.00  0.00     0.018 A 
ATOM      2  C   UNL     1      25.889  13.035  22.946  1.00  0.00     0.035 A 
ATOM      3  C   UNL     1      24.589  13.376  22.651  1.00  0.00     0.042 A 
ATOM      4  C   UNL     1      24.314  14.309  21.659  1.00  0.00     0.029 A 
ATOM      5  C   UNL     1      25.381  14.856  20.968  1.00  0.00     0.042 A 
ATOM      6  C   UNL     1      26.679  14.480  21.253  1.00  0.00     0.129 A 
ATOM      7  F   UNL     1      27.706  15.010  20.540  1.00  0.00    -0.207 F 
ENDROOT
BRANCH   1   8
ATOM      8  C   UNL     1      28.401  13.178  22.611  1.00  0.00     0.105 C 
ATOM      9  C   UNL     1      28.646  12.886  24.074  1.00  0.00     0.195 C 
ATOM     10  N   UNL     1      29.379  14.149  22.122  1.00  0.00    -0.240 NA
ATOM     11  S   UNL     1      28.390  14.343  25.055  1.00  0.00     0.239 S 
ATOM     12  C   UNL     1      29.640  15.240  22.774  1.00  0.00     0.205 C 
ATOM     13  O   UNL     1      29.233  14.205  26.230  1.00  0.00    -0.206 OA
ATOM     14  N   UNL     1      29.111  15.540  24.049  1.00  0.00    -0.243 N 
ATOM     15  O   UNL     1      27.011  14.716  25.096  1.00  0.00    -0.206 OA
ATOM     16  N   UNL     1      30.486  16.199  22.284  1.00  0.00    -0.369 N 
ATOM     17  C   UNL     1      28.762  11.909  21.834  1.00  0.00     0.044 C 
ATOM     18  C   UNL     1      29.318  16.837  24.722  1.00  0.00     0.167 C 
ATOM     19  H   UNL     1      30.906  16.081  21.401  1.00  0.00     0.159 HD
ATOM     20  H   UNL     1      30.675  17.006  22.815  1.00  0.00     0.159 HD
ENDBRANCH   1   8
BRANCH   3  21
ATOM     21  N   UNL     1      23.589  12.759  23.414  1.00  0.00    -0.321 N 
ATOM     22  C   UNL     1      23.206  13.041  24.714  1.00  0.00     0.274 C 
ATOM     23  O   UNL     1      23.785  13.812  25.467  1.00  0.00    -0.267 OA
ATOM     24  H   UNL     1      23.095  12.033  22.969  1.00  0.00     0.170 HD
BRANCH  22  25
ATOM     25  C   UNL     1      21.973  12.356  25.173  1.00  0.00     0.128 A 
ATOM     26  N   UNL     1      20.843  13.068  25.114  1.00  0.00    -0.248 NA
ATOM     27  C   UNL     1      22.035  11.048  25.621  1.00  0.00     0.037 A 
ATOM     28  C   UNL     1      19.714  12.471  25.528  1.00  0.00     0.151 A 
ATOM     29  C   UNL     1      20.854  10.458  26.036  1.00  0.00     0.043 A 
ATOM     30  C   UNL     1      19.675  11.177  25.995  1.00  0.00     0.141 A 
ATOM     31  F   UNL     1      18.502  10.643  26.379  1.00  0.00    -0.205 F 
ENDBRANCH  22  25
ENDBRANCH   3  21
TORSDOF 3
ENDMDL
MODEL 12
REMARK VINA RESULT:    -7.531      2.622      3.982
REMARK INTER + INTRA:          -9.109
REMARK INTER:                  -9.710
REMARK INTRA:                   0.600
REMARK UNBOUND:                -0.257
REMARK SMILES CN1C(N)=N[C@](C)(c2cc(NC(=O)c3ccc(F)cn3)ccc2F)CS1(=O)=O
REMARK SMILES IDX 8 1 9 2 10 3 21 4 22 5 23 6 24 7 6 8 25 9 5 10 26 11 3 12
REMARK SMILES IDX 27 13 2 14 28 15 4 16 7 17 1 18 11 21 12 22 13 23 14 25
REMARK SMILES IDX 20 26 15 27 19 28 16 29 17 30 18 31
REMARK H PARENT 4 19 4 20 11 24
ROOT
ATOM      1  C   UNL     1      25.933  14.011  22.863  1.00  0.00     0.018 A 
ATOM      2  C   UNL     1      24.885  13.948  23.780  1.00  0.00     0.035 A 
ATOM      3  C   UNL     1      25.098  13.864  25.137  1.00  0.00     0.042 A 
ATOM      4  C   UNL     1      26.391  13.816  25.644  1.00  0.00     0.029 A 
ATOM      5  C   UNL     1      27.443  13.881  24.749  1.00  0.00     0.042 A 
ATOM      6  C   UNL     1      27.214  13.998  23.392  1.00  0.00     0.129 A 
ATOM      7  F   UNL     1      28.264  14.089  22.536  1.00  0.00    -0.207 F 
ENDROOT
BRANCH   1   8
ATOM      8  C   UNL     1      25.664  14.106  21.369  1.00  0.00     0.105 C 
ATOM      9  C   UNL     1      24.244  13.795  20.952  1.00  0.00     0.195 C 
ATOM     10  N   UNL     1      26.604  13.301  20.590  1.00  0.00    -0.240 NA
ATOM     11  S   UNL     1      23.836  12.108  21.325  1.00  0.00     0.239 S 
ATOM     12  C   UNL     1      26.437  12.024  20.430  1.00  0.00     0.205 C 
ATOM     13  O   UNL     1      22.821  11.706  20.367  1.00  0.00    -0.206 OA
ATOM     14  N   UNL     1      25.299  11.318  20.878  1.00  0.00    -0.243 N 
ATOM     15  O   UNL     1      23.744  11.886  22.734  1.00  0.00    -0.206 OA
ATOM     16  N   UNL     1      27.355  11.244  19.779  1.00  0.00    -0.369 N 
ATOM     17  C   UNL     1      25.966  15.533  20.902  1.00  0.00     0.044 C 
ATOM     18  C   UNL     1      25.182   9.848  20.799  1.00  0.00     0.167 C 
ATOM     19  H   UNL     1      28.183  11.646  19.429  1.00  0.00     0.159 HD
ATOM     20  H   UNL     1      27.187  10.281  19.660  1.00  0.00     0.159 HD
ENDBRANCH   1   8
BRANCH   3  21
ATOM     21  N   UNL     1      23.958  13.804  25.949  1.00  0.00    -0.321 N 
ATOM     22  C   UNL     1      23.228  12.689  26.322  1.00  0.00     0.274 C 
ATOM     23  O   UNL     1      23.396  11.559  25.882  1.00  0.00    -0.267 OA
ATOM     24  H   UNL     1      23.636  14.666  26.300  1.00  0.00     0.170 HD
BRANCH  22  25
ATOM     25  C   UNL     1      22.198  12.925  27.362  1.00  0.00     0.128 A 
ATOM     26  N   UNL     1      20.986  12.413  27.123  1.00  0.00    -0.248 NA
ATOM     27  C   UNL     1      22.521  13.634  28.506  1.00  0.00     0.037 A 
ATOM     28  C   UNL     1      20.035  12.617  28.050  1.00  0.00     0.151 A 
ATOM     29  C   UNL     1      21.521  13.823  29.444  1.00  0.00     0.043 A 
ATOM     30  C   UNL     1      20.258  13.314  29.216  1.00  0.00     0.141 A 
ATOM     31  F   UNL     1      19.259  13.464  30.102  1.00  0.00    -0.205 F 
ENDBRANCH  22  25
ENDBRANCH   3  21
TORSDOF 3
ENDMDL
MODEL 13
REMARK VINA RESULT:    -7.448      2.457      3.508
REMARK INTER + INTRA:          -9.011
REMARK INTER:                  -9.302
REMARK INTRA:                   0.291
REMARK UNBOUND:                -0.257
REMARK SMILES CN1C(N)=N[C@](C)(c2cc(NC(=O)c3ccc(F)cn3)ccc2F)CS1(=O)=O
REMARK SMILES IDX 8 1 9 2 10 3 21 4 22 5 23 6 24 7 6 8 25 9 5 10 26 11 3 12
REMARK SMILES IDX 27 13 2 14 28 15 4 16 7 17 1 18 11 21 12 22 13 23 14 25
REMARK SMILES IDX 20 26 15 27 19 28 16 29 17 30 18 31
REMARK H PARENT 4 19 4 20 11 24
ROOT
ATOM      1  C   UNL     1      23.980  13.628  21.858  1.00  0.00     0.018 A 
ATOM      2  C   UNL     1      23.215  13.148  22.919  1.00  0.00     0.035 A 
ATOM      3  C   UNL     1      23.367  13.613  24.206  1.00  0.00     0.042 A 
ATOM      4  C   UNL     1      24.323  14.578  24.497  1.00  0.00     0.029 A 
ATOM      5  C   UNL     1      25.089  15.069  23.455  1.00  0.00     0.042 A 
ATOM      6  C   UNL     1      24.903  14.617  22.163  1.00  0.00     0.129 A 
ATOM      7  F   UNL     1      25.648  15.136  21.154  1.00  0.00    -0.207 F 
ENDROOT
BRANCH   1   8
ATOM      8  C   UNL     1      23.786  13.097  20.446  1.00  0.00     0.105 C 
ATOM      9  C   UNL     1      23.324  11.660  20.360  1.00  0.00     0.195 C 
ATOM     10  N   UNL     1      24.975  13.292  19.618  1.00  0.00    -0.240 NA
ATOM     11  S   UNL     1      24.549  10.566  21.034  1.00  0.00     0.239 S 
ATOM     12  C   UNL     1      25.983  12.478  19.671  1.00  0.00     0.205 C 
ATOM     13  O   UNL     1      24.383   9.292  20.357  1.00  0.00    -0.206 OA
ATOM     14  N   UNL     1      25.990  11.283  20.424  1.00  0.00    -0.243 N 
ATOM     15  O   UNL     1      24.666  10.714  22.451  1.00  0.00    -0.206 OA
ATOM     16  N   UNL     1      27.137  12.697  18.967  1.00  0.00    -0.369 N 
ATOM     17  C   UNL     1      22.731  13.951  19.737  1.00  0.00     0.044 C 
ATOM     18  C   UNL     1      27.187  10.432  20.573  1.00  0.00     0.167 C 
ATOM     19  H   UNL     1      27.228  13.505  18.411  1.00  0.00     0.159 HD
ATOM     20  H   UNL     1      27.876  12.048  19.017  1.00  0.00     0.159 HD
ENDBRANCH   1   8
BRANCH   3  21
ATOM     21  N   UNL     1      22.537  13.044  25.181  1.00  0.00    -0.321 N 
ATOM     22  C   UNL     1      22.716  11.860  25.875  1.00  0.00     0.274 C 
ATOM     23  O   UNL     1      23.591  11.036  25.646  1.00  0.00    -0.267 OA
ATOM     24  H   UNL     1      21.723  13.552  25.401  1.00  0.00     0.170 HD
BRANCH  22  25
ATOM     25  C   UNL     1      21.770  11.634  26.995  1.00  0.00     0.128 A 
ATOM     26  N   UNL     1      20.869  10.662  26.823  1.00  0.00    -0.248 NA
ATOM     27  C   UNL     1      21.860  12.405  28.141  1.00  0.00     0.037 A 
ATOM     28  C   UNL     1      19.999  10.441  27.822  1.00  0.00     0.151 A 
ATOM     29  C   UNL     1      20.954  12.149  29.155  1.00  0.00     0.043 A 
ATOM     30  C   UNL     1      20.005  11.158  28.997  1.00  0.00     0.141 A 
ATOM     31  F   UNL     1      19.112  10.868  29.958  1.00  0.00    -0.205 F 
ENDBRANCH  22  25
ENDBRANCH   3  21
TORSDOF 3
ENDMDL
MODEL 14
REMARK VINA RESULT:    -7.335      2.866      4.260
REMARK INTER + INTRA:          -8.879
REMARK INTER:                  -9.192
REMARK INTRA:                   0.313
REMARK UNBOUND:                -0.257
REMARK SMILES CN1C(N)=N[C@](C)(c2cc(NC(=O)c3ccc(F)cn3)ccc2F)CS1(=O)=O
REMARK SMILES IDX 8 1 9 2 10 3 21 4 22 5 23 6 24 7 6 8 25 9 5 10 26 11 3 12
REMARK SMILES IDX 27 13 2 14 28 15 4 16 7 17 1 18 11 21 12 22 13 23 14 25
REMARK SMILES IDX 20 26 15 27 19 28 16 29 17 30 18 31
REMARK H PARENT 4 19 4 20 11 24
ROOT
ATOM      1  C   UNL     1      27.755  13.759  23.380  1.00  0.00     0.018 A 
ATOM      2  C   UNL     1      26.541  13.146  23.688  1.00  0.00     0.035 A 
ATOM      3  C   UNL     1      25.902  13.343  24.891  1.00  0.00     0.042 A 
ATOM      4  C   UNL     1      26.469  14.157  25.864  1.00  0.00     0.029 A 
ATOM      5  C   UNL     1      27.671  14.776  25.574  1.00  0.00     0.042 A 
ATOM      6  C   UNL     1      28.285  14.596  24.350  1.00  0.00     0.129 A 
ATOM      7  F   UNL     1      29.450  15.238  24.079  1.00  0.00    -0.207 F 
ENDROOT
BRANCH   1   8
ATOM      8  C   UNL     1      28.435  13.525  22.040  1.00  0.00     0.105 C 
ATOM      9  C   UNL     1      28.419  14.708  21.098  1.00  0.00     0.195 C 
ATOM     10  N   UNL     1      27.918  12.337  21.363  1.00  0.00    -0.240 NA
ATOM     11  S   UNL     1      26.755  15.119  20.635  1.00  0.00     0.239 S 
ATOM     12  C   UNL     1      26.817  12.368  20.677  1.00  0.00     0.205 C 
ATOM     13  O   UNL     1      26.831  15.737  19.323  1.00  0.00    -0.206 OA
ATOM     14  N   UNL     1      26.084  13.548  20.420  1.00  0.00    -0.243 N 
ATOM     15  O   UNL     1      26.020  15.658  21.736  1.00  0.00    -0.206 OA
ATOM     16  N   UNL     1      26.276  11.244  20.112  1.00  0.00    -0.369 N 
ATOM     17  C   UNL     1      29.903  13.168  22.287  1.00  0.00     0.044 C 
ATOM     18  C   UNL     1      24.771  13.549  19.746  1.00  0.00     0.167 C 
ATOM     19  H   UNL     1      26.715  10.372  20.235  1.00  0.00     0.159 HD
ATOM     20  H   UNL     1      25.448  11.309  19.583  1.00  0.00     0.159 HD
ENDBRANCH   1   8
BRANCH   3  21
ATOM     21  N   UNL     1      24.690  12.665  25.076  1.00  0.00    -0.321 N 
ATOM     22  C   UNL     1      23.599  13.051  25.834  1.00  0.00     0.274 C 
ATOM     23  O   UNL     1      23.571  14.016  26.587  1.00  0.00    -0.267 OA
ATOM     24  H   UNL     1      24.604  11.804  24.606  1.00  0.00     0.170 HD
BRANCH  22  25
ATOM     25  C   UNL     1      22.382  12.222  25.661  1.00  0.00     0.128 A 
ATOM     26  N   UNL     1      22.557  11.024  25.094  1.00  0.00    -0.248 NA
ATOM     27  C   UNL     1      21.154  12.699  26.087  1.00  0.00     0.037 A 
ATOM     28  C   UNL     1      21.468  10.256  24.922  1.00  0.00     0.151 A 
ATOM     29  C   UNL     1      20.052  11.883  25.902  1.00  0.00     0.043 A 
ATOM     30  C   UNL     1      20.205  10.645  25.308  1.00  0.00     0.141 A 
ATOM     31  F   UNL     1      19.166   9.814  25.116  1.00  0.00    -0.205 F 
ENDBRANCH  22  25
ENDBRANCH   3  21
TORSDOF 3
ENDMDL
MODEL 15
REMARK VINA RESULT:    -7.189      1.869      2.336
REMARK INTER + INTRA:          -8.707
REMARK INTER:                  -8.564
REMARK INTRA:                  -0.143
REMARK UNBOUND:                -0.257
REMARK SMILES CN1C(N)=N[C@](C)(c2cc(NC(=O)c3ccc(F)cn3)ccc2F)CS1(=O)=O
REMARK SMILES IDX 8 1 9 2 10 3 21 4 22 5 23 6 24 7 6 8 25 9 5 10 26 11 3 12
REMARK SMILES IDX 27 13 2 14 28 15 4 16 7 17 1 18 11 21 12 22 13 23 14 25
REMARK SMILES IDX 20 26 15 27 19 28 16 29 17 30 18 31
REMARK H PARENT 4 19 4 20 11 24
ROOT
ATOM      1  C   UNL     1      26.094  14.611  21.512  1.00  0.00     0.018 A 
ATOM      2  C   UNL     1      25.356  14.387  22.674  1.00  0.00     0.035 A 
ATOM      3  C   UNL     1      24.208  13.628  22.682  1.00  0.00     0.042 A 
ATOM      4  C   UNL     1      23.726  13.068  21.505  1.00  0.00     0.029 A 
ATOM      5  C   UNL     1      24.448  13.278  20.343  1.00  0.00     0.042 A 
ATOM      6  C   UNL     1      25.615  14.015  20.356  1.00  0.00     0.129 A 
ATOM      7  F   UNL     1      26.320  14.181  19.207  1.00  0.00    -0.207 F 
ENDROOT
BRANCH   1   8
ATOM      8  C   UNL     1      27.360  15.452  21.537  1.00  0.00     0.105 C 
ATOM      9  C   UNL     1      28.640  14.691  21.270  1.00  0.00     0.195 C 
ATOM     10  N   UNL     1      27.483  16.223  22.773  1.00  0.00    -0.240 NA
ATOM     11  S   UNL     1      28.933  13.491  22.544  1.00  0.00     0.239 S 
ATOM     12  C   UNL     1      27.942  15.693  23.864  1.00  0.00     0.205 C 
ATOM     13  O   UNL     1      30.371  13.302  22.613  1.00  0.00    -0.206 OA
ATOM     14  N   UNL     1      28.470  14.385  23.941  1.00  0.00    -0.243 N 
ATOM     15  O   UNL     1      27.984  12.423  22.491  1.00  0.00    -0.206 OA
ATOM     16  N   UNL     1      27.980  16.377  25.049  1.00  0.00    -0.369 N 
ATOM     17  C   UNL     1      27.253  16.539  20.464  1.00  0.00     0.044 C 
ATOM     18  C   UNL     1      28.872  13.753  25.213  1.00  0.00     0.167 C 
ATOM     19  H   UNL     1      27.635  17.298  25.097  1.00  0.00     0.159 HD
ATOM     20  H   UNL     1      28.353  15.949  25.854  1.00  0.00     0.159 HD
ENDBRANCH   1   8
BRANCH   3  21
ATOM     21  N   UNL     1      23.560  13.482  23.915  1.00  0.00    -0.321 N 
ATOM     22  C   UNL     1      23.552  12.383  24.755  1.00  0.00     0.274 C 
ATOM     23  O   UNL     1      24.022  11.285  24.483  1.00  0.00    -0.267 OA
ATOM     24  H   UNL     1      23.044  14.262  24.224  1.00  0.00     0.170 HD
BRANCH  22  25
ATOM     25  C   UNL     1      22.949  12.610  26.091  1.00  0.00     0.128 A 
ATOM     26  N   UNL     1      23.472  13.604  26.817  1.00  0.00    -0.248 NA
ATOM     27  C   UNL     1      21.895  11.820  26.517  1.00  0.00     0.037 A 
ATOM     28  C   UNL     1      22.945  13.826  28.032  1.00  0.00     0.151 A 
ATOM     29  C   UNL     1      21.369  12.077  27.770  1.00  0.00     0.043 A 
ATOM     30  C   UNL     1      21.901  13.090  28.545  1.00  0.00     0.141 A 
ATOM     31  F   UNL     1      21.417  13.383  29.764  1.00  0.00    -0.205 F 
ENDBRANCH  22  25
ENDBRANCH   3  21
TORSDOF 3
ENDMDL
MODEL 16
REMARK VINA RESULT:    -7.147      2.813      3.830
REMARK INTER + INTRA:          -8.657
REMARK INTER:                  -9.054
REMARK INTRA:                   0.397
REMARK UNBOUND:                -0.257
REMARK SMILES CN1C(N)=N[C@](C)(c2cc(NC(=O)c3ccc(F)cn3)ccc2F)CS1(=O)=O
REMARK SMILES IDX 8 1 9 2 10 3 21 4 22 5 23 6 24 7 6 8 25 9 5 10 26 11 3 12
REMARK SMILES IDX 27 13 2 14 28 15 4 16 7 17 1 18 11 21 12 22 13 23 14 25
REMARK SMILES IDX 20 26 15 27 19 28 16 29 17 30 18 31
REMARK H PARENT 4 19 4 20 11 24
ROOT
ATOM      1  C   UNL     1      26.725  14.081  23.221  1.00  0.00     0.018 A 
ATOM      2  C   UNL     1      25.410  13.656  23.399  1.00  0.00     0.035 A 
ATOM      3  C   UNL     1      24.838  13.533  24.645  1.00  0.00     0.042 A 
ATOM      4  C   UNL     1      25.576  13.814  25.789  1.00  0.00     0.029 A 
ATOM      5  C   UNL     1      26.883  14.241  25.630  1.00  0.00     0.042 A 
ATOM      6  C   UNL     1      27.433  14.390  24.373  1.00  0.00     0.129 A 
ATOM      7  F   UNL     1      28.708  14.838  24.244  1.00  0.00    -0.207 F 
ENDROOT
BRANCH   1   8
ATOM      8  C   UNL     1      27.327  14.210  21.830  1.00  0.00     0.105 C 
ATOM      9  C   UNL     1      26.613  13.432  20.748  1.00  0.00     0.195 C 
ATOM     10  N   UNL     1      28.754  13.891  21.819  1.00  0.00    -0.240 NA
ATOM     11  S   UNL     1      26.706  11.687  21.064  1.00  0.00     0.239 S 
ATOM     12  C   UNL     1      29.178  12.666  21.773  1.00  0.00     0.205 C 
ATOM     13  O   UNL     1      26.629  11.028  19.773  1.00  0.00    -0.206 OA
ATOM     14  N   UNL     1      28.332  11.547  21.612  1.00  0.00    -0.243 N 
ATOM     15  O   UNL     1      25.927  11.316  22.204  1.00  0.00    -0.206 OA
ATOM     16  N   UNL     1      30.508  12.350  21.850  1.00  0.00    -0.369 N 
ATOM     17  C   UNL     1      27.302  15.683  21.415  1.00  0.00     0.044 C 
ATOM     18  C   UNL     1      28.816  10.154  21.686  1.00  0.00     0.167 C 
ATOM     19  H   UNL     1      31.178  13.063  21.962  1.00  0.00     0.159 HD
ATOM     20  H   UNL     1      30.795  11.410  21.793  1.00  0.00     0.159 HD
ENDBRANCH   1   8
BRANCH   3  21
ATOM     21  N   UNL     1      23.508  13.093  24.686  1.00  0.00    -0.321 N 
ATOM     22  C   UNL     1      23.030  11.842  25.030  1.00  0.00     0.274 C 
ATOM     23  O   UNL     1      23.724  10.855  25.237  1.00  0.00    -0.267 OA
ATOM     24  H   UNL     1      22.828  13.761  24.438  1.00  0.00     0.170 HD
BRANCH  22  25
ATOM     25  C   UNL     1      21.558  11.746  25.181  1.00  0.00     0.128 A 
ATOM     26  N   UNL     1      21.045  10.512  25.224  1.00  0.00    -0.248 NA
ATOM     27  C   UNL     1      20.797  12.899  25.279  1.00  0.00     0.037 A 
ATOM     28  C   UNL     1      19.713  10.401  25.356  1.00  0.00     0.151 A 
ATOM     29  C   UNL     1      19.428  12.751  25.420  1.00  0.00     0.043 A 
ATOM     30  C   UNL     1      18.873  11.487  25.455  1.00  0.00     0.141 A 
ATOM     31  F   UNL     1      17.551  11.294  25.600  1.00  0.00    -0.205 F 
ENDBRANCH  22  25
ENDBRANCH   3  21
TORSDOF 3
ENDMDL
MODEL 17
REMARK VINA RESULT:    -7.064      4.200      9.131
REMARK INTER + INTRA:          -8.560
REMARK INTER:                  -8.281
REMARK INTRA:                  -0.279
REMARK UNBOUND:                -0.257
REMARK SMILES CN1C(N)=N[C@](C)(c2cc(NC(=O)c3ccc(F)cn3)ccc2F)CS1(=O)=O
REMARK SMILES IDX 8 1 9 2 10 3 21 4 22 5 23 6 24 7 6 8 25 9 5 10 26 11 3 12
REMARK SMILES IDX 27 13 2 14 28 15 4 16 7 17 1 18 11 21 12 22 13 23 14 25
REMARK SMILES IDX 20 26 15 27 19 28 16 29 17 30 18 31
REMARK H PARENT 4 19 4 20 11 24
ROOT
ATOM      1  C   UNL     1      26.413  14.524  22.602  1.00  0.00     0.018 A 
ATOM      2  C   UNL     1      26.673  15.131  21.374  1.00  0.00     0.035 A 
ATOM      3  C   UNL     1      27.898  15.679  21.068  1.00  0.00     0.042 A 
ATOM      4  C   UNL     1      28.928  15.663  22.000  1.00  0.00     0.029 A 
ATOM      5  C   UNL     1      28.689  15.061  23.223  1.00  0.00     0.042 A 
ATOM      6  C   UNL     1      27.465  14.488  23.504  1.00  0.00     0.129 A 
ATOM      7  F   UNL     1      27.266  13.877  24.701  1.00  0.00    -0.207 F 
ENDROOT
BRANCH   1   8
ATOM      8  C   UNL     1      25.049  13.925  22.909  1.00  0.00     0.105 C 
ATOM      9  C   UNL     1      25.055  12.446  23.224  1.00  0.00     0.195 C 
ATOM     10  N   UNL     1      24.075  14.211  21.856  1.00  0.00    -0.240 NA
ATOM     11  S   UNL     1      25.596  11.508  21.818  1.00  0.00     0.239 S 
ATOM     12  C   UNL     1      24.021  13.505  20.769  1.00  0.00     0.205 C 
ATOM     13  O   UNL     1      24.975  10.200  21.929  1.00  0.00    -0.206 OA
ATOM     14  N   UNL     1      24.796  12.346  20.545  1.00  0.00    -0.243 N 
ATOM     15  O   UNL     1      26.984  11.718  21.546  1.00  0.00    -0.206 OA
ATOM     16  N   UNL     1      23.175  13.816  19.738  1.00  0.00    -0.369 N 
ATOM     17  C   UNL     1      24.458  14.641  24.126  1.00  0.00     0.044 C 
ATOM     18  C   UNL     1      24.814  11.627  19.255  1.00  0.00     0.167 C 
ATOM     19  H   UNL     1      22.593  14.607  19.801  1.00  0.00     0.159 HD
ATOM     20  H   UNL     1      23.148  13.247  18.935  1.00  0.00     0.159 HD
ENDBRANCH   1   8
BRANCH   3  21
ATOM     21  N   UNL     1      28.027  16.261  19.801  1.00  0.00    -0.321 N 
ATOM     22  C   UNL     1      28.208  17.596  19.485  1.00  0.00     0.274 C 
ATOM     23  O   UNL     1      28.156  18.522  20.283  1.00  0.00    -0.267 OA
ATOM     24  H   UNL     1      27.983  15.641  19.037  1.00  0.00     0.170 HD
BRANCH  22  25
ATOM     25  C   UNL     1      28.522  17.873  18.062  1.00  0.00     0.128 A 
ATOM     26  N   UNL     1      29.816  17.862  17.727  1.00  0.00    -0.248 NA
ATOM     27  C   UNL     1      27.497  18.113  17.163  1.00  0.00     0.037 A 
ATOM     28  C   UNL     1      30.125  18.115  16.444  1.00  0.00     0.151 A 
ATOM     29  C   UNL     1      27.847  18.364  15.848  1.00  0.00     0.043 A 
ATOM     30  C   UNL     1      29.178  18.371  15.479  1.00  0.00     0.141 A 
ATOM     31  F   UNL     1      29.565  18.600  14.212  1.00  0.00    -0.205 F 
ENDBRANCH  22  25
ENDBRANCH   3  21
TORSDOF 3
ENDMDL
MODEL 18
REMARK VINA RESULT:    -7.027      4.704      9.158
REMARK INTER + INTRA:          -8.517
REMARK INTER:                  -8.926
REMARK INTRA:                   0.409
REMARK UNBOUND:                -0.257
REMARK SMILES CN1C(N)=N[C@](C)(c2cc(NC(=O)c3ccc(F)cn3)ccc2F)CS1(=O)=O
REMARK SMILES IDX 8 1 9 2 10 3 21 4 22 5 23 6 24 7 6 8 25 9 5 10 26 11 3 12
REMARK SMILES IDX 27 13 2 14 28 15 4 16 7 17 1 18 11 21 12 22 13 23 14 25
REMARK SMILES IDX 20 26 15 27 19 28 16 29 17 30 18 31
REMARK H PARENT 4 19 4 20 11 24
ROOT
ATOM      1  C   UNL     1      18.531  12.004  26.392  1.00  0.00     0.018 A 
ATOM      2  C   UNL     1      19.591  12.433  25.595  1.00  0.00     0.035 A 
ATOM      3  C   UNL     1      20.847  12.671  26.106  1.00  0.00     0.042 A 
ATOM      4  C   UNL     1      21.097  12.508  27.462  1.00  0.00     0.029 A 
ATOM      5  C   UNL     1      20.058  12.078  28.268  1.00  0.00     0.042 A 
ATOM      6  C   UNL     1      18.811  11.813  27.737  1.00  0.00     0.129 A 
ATOM      7  F   UNL     1      17.816  11.365  28.544  1.00  0.00    -0.207 F 
ENDROOT
BRANCH   1   8
ATOM      8  C   UNL     1      17.155  11.747  25.798  1.00  0.00     0.105 C 
ATOM      9  C   UNL     1      16.692  12.774  24.788  1.00  0.00     0.195 C 
ATOM     10  N   UNL     1      16.137  11.564  26.830  1.00  0.00    -0.240 NA
ATOM     11  S   UNL     1      16.506  14.365  25.552  1.00  0.00     0.239 S 
ATOM     12  C   UNL     1      15.575  12.573  27.421  1.00  0.00     0.205 C 
ATOM     13  O   UNL     1      15.494  15.074  24.790  1.00  0.00    -0.206 OA
ATOM     14  N   UNL     1      15.795  13.920  27.055  1.00  0.00    -0.243 N 
ATOM     15  O   UNL     1      17.770  14.923  25.923  1.00  0.00    -0.206 OA
ATOM     16  N   UNL     1      14.686  12.416  28.450  1.00  0.00    -0.369 N 
ATOM     17  C   UNL     1      17.169  10.392  25.085  1.00  0.00     0.044 C 
ATOM     18  C   UNL     1      15.247  15.060  27.815  1.00  0.00     0.167 C 
ATOM     19  H   UNL     1      14.467  11.513  28.777  1.00  0.00     0.159 HD
ATOM     20  H   UNL     1      14.265  13.205  28.863  1.00  0.00     0.159 HD
ENDBRANCH   1   8
BRANCH   3  21
ATOM     21  N   UNL     1      21.823  13.101  25.197  1.00  0.00    -0.321 N 
ATOM     22  C   UNL     1      22.597  12.335  24.344  1.00  0.00     0.274 C 
ATOM     23  O   UNL     1      22.642  11.112  24.340  1.00  0.00    -0.267 OA
ATOM     24  H   UNL     1      21.977  14.073  25.161  1.00  0.00     0.170 HD
BRANCH  22  25
ATOM     25  C   UNL     1      23.391  13.100  23.352  1.00  0.00     0.128 A 
ATOM     26  N   UNL     1      24.050  14.167  23.815  1.00  0.00    -0.248 NA
ATOM     27  C   UNL     1      23.429  12.687  22.031  1.00  0.00     0.037 A 
ATOM     28  C   UNL     1      24.773  14.878  22.934  1.00  0.00     0.151 A 
ATOM     29  C   UNL     1      24.187  13.436  21.148  1.00  0.00     0.043 A 
ATOM     30  C   UNL     1      24.867  14.551  21.600  1.00  0.00     0.141 A 
ATOM     31  F   UNL     1      25.623  15.303  20.782  1.00  0.00    -0.205 F 
ENDBRANCH  22  25
ENDBRANCH   3  21
TORSDOF 3
ENDMDL
MODEL 19
REMARK VINA RESULT:    -7.018      3.643      8.230
REMARK INTER + INTRA:          -8.506
REMARK INTER:                  -8.459
REMARK INTRA:                  -0.047
REMARK UNBOUND:                -0.257
REMARK SMILES CN1C(N)=N[C@](C)(c2cc(NC(=O)c3ccc(F)cn3)ccc2F)CS1(=O)=O
REMARK SMILES IDX 8 1 9 2 10 3 21 4 22 5 23 6 24 7 6 8 25 9 5 10 26 11 3 12
REMARK SMILES IDX 27 13 2 14 28 15 4 16 7 17 1 18 11 21 12 22 13 23 14 25
REMARK SMILES IDX 20 26 15 27 19 28 16 29 17 30 18 31
REMARK H PARENT 4 19 4 20 11 24
ROOT
ATOM      1  C   UNL     1      25.034  13.599  23.367  1.00  0.00     0.018 A 
ATOM      2  C   UNL     1      25.906  14.390  22.622  1.00  0.00     0.035 A 
ATOM      3  C   UNL     1      27.091  14.866  23.136  1.00  0.00     0.042 A 
ATOM      4  C   UNL     1      27.451  14.585  24.448  1.00  0.00     0.029 A 
ATOM      5  C   UNL     1      26.598  13.798  25.202  1.00  0.00     0.042 A 
ATOM      6  C   UNL     1      25.429  13.301  24.662  1.00  0.00     0.129 A 
ATOM      7  F   UNL     1      24.624  12.507  25.414  1.00  0.00    -0.207 F 
ENDROOT
BRANCH   1   8
ATOM      8  C   UNL     1      23.733  13.086  22.769  1.00  0.00     0.105 C 
ATOM      9  C   UNL     1      23.662  11.587  22.580  1.00  0.00     0.195 C 
ATOM     10  N   UNL     1      23.398  13.766  21.519  1.00  0.00    -0.240 NA
ATOM     11  S   UNL     1      24.882  11.044  21.410  1.00  0.00     0.239 S 
ATOM     12  C   UNL     1      23.931  13.416  20.389  1.00  0.00     0.205 C 
ATOM     13  O   UNL     1      24.360   9.835  20.799  1.00  0.00    -0.206 OA
ATOM     14  N   UNL     1      24.777  12.296  20.232  1.00  0.00    -0.243 N 
ATOM     15  O   UNL     1      26.207  11.175  21.930  1.00  0.00    -0.206 OA
ATOM     16  N   UNL     1      23.694  14.100  19.227  1.00  0.00    -0.369 N 
ATOM     17  C   UNL     1      22.576  13.477  23.693  1.00  0.00     0.044 C 
ATOM     18  C   UNL     1      25.473  11.984  18.969  1.00  0.00     0.167 C 
ATOM     19  H   UNL     1      23.116  14.897  19.234  1.00  0.00     0.159 HD
ATOM     20  H   UNL     1      24.101  13.795  18.384  1.00  0.00     0.159 HD
ENDBRANCH   1   8
BRANCH   3  21
ATOM     21  N   UNL     1      27.875  15.653  22.283  1.00  0.00    -0.321 N 
ATOM     22  C   UNL     1      29.225  15.533  22.007  1.00  0.00     0.274 C 
ATOM     23  O   UNL     1      29.997  14.777  22.581  1.00  0.00    -0.267 OA
ATOM     24  H   UNL     1      27.405  16.384  21.820  1.00  0.00     0.170 HD
BRANCH  22  25
ATOM     25  C   UNL     1      29.723  16.384  20.898  1.00  0.00     0.128 A 
ATOM     26  N   UNL     1      31.046  16.397  20.709  1.00  0.00    -0.248 NA
ATOM     27  C   UNL     1      28.828  17.099  20.121  1.00  0.00     0.037 A 
ATOM     28  C   UNL     1      31.521  17.163  19.713  1.00  0.00     0.151 A 
ATOM     29  C   UNL     1      29.347  17.874  19.099  1.00  0.00     0.043 A 
ATOM     30  C   UNL     1      30.712  17.914  18.890  1.00  0.00     0.141 A 
ATOM     31  F   UNL     1      31.261  18.645  17.905  1.00  0.00    -0.205 F 
ENDBRANCH  22  25
ENDBRANCH   3  21
TORSDOF 3
ENDMDL
