MODEL 1
REMARK VINA RESULT:    -9.493      0.000      0.000
REMARK INTER + INTRA:         -11.488
REMARK INTER:                 -11.157
REMARK INTRA:                  -0.331
REMARK UNBOUND:                -0.331
REMARK SMILES CN1C(N)=N[C@](C)(c2cc(NC(=O)c3ccc(F)cn3)ccc2F)CS1(=O)=O
REMARK SMILES IDX 8 1 9 2 10 3 21 4 22 5 23 6 24 7 6 8 25 9 5 10 26 11 3 12
REMARK SMILES IDX 27 13 2 14 28 15 4 16 7 17 1 18 11 21 12 22 13 23 14 25
REMARK SMILES IDX 20 26 15 27 19 28 16 29 17 30 18 31
REMARK H PARENT 4 19 4 20 11 24
ROOT
ATOM      1  C   UNL     1      22.859  10.514  20.585  1.00  0.00     0.018 A 
ATOM      2  C   UNL     1      24.137  10.122  20.978  1.00  0.00     0.035 A 
ATOM      3  C   UNL     1      25.265  10.478  20.274  1.00  0.00     0.042 A 
ATOM      4  C   UNL     1      25.161  11.234  19.114  1.00  0.00     0.029 A 
ATOM      5  C   UNL     1      23.899  11.635  18.710  1.00  0.00     0.042 A 
ATOM      6  C   UNL     1      22.779  11.298  19.444  1.00  0.00     0.129 A 
ATOM      7  F   UNL     1      21.556  11.728  19.043  1.00  0.00    -0.207 F 
ENDROOT
BRANCH   1   8
ATOM      8  C   UNL     1      21.632  10.108  21.387  1.00  0.00     0.105 C 
ATOM      9  C   UNL     1      20.759  11.254  21.847  1.00  0.00     0.195 C 
ATOM     10  N   UNL     1      21.976   9.252  22.521  1.00  0.00    -0.240 NA
ATOM     11  S   UNL     1      21.644  12.302  22.974  1.00  0.00     0.239 S 
ATOM     12  C   UNL     1      22.411   9.744  23.639  1.00  0.00     0.205 C 
ATOM     13  O   UNL     1      20.650  12.913  23.839  1.00  0.00    -0.206 OA
ATOM     14  N   UNL     1      22.483  11.128  23.913  1.00  0.00    -0.243 N 
ATOM     15  O   UNL     1      22.687  13.023  22.315  1.00  0.00    -0.206 OA
ATOM     16  N   UNL     1      22.820   8.951  24.677  1.00  0.00    -0.369 N 
ATOM     17  C   UNL     1      20.756   9.196  20.522  1.00  0.00     0.044 C 
ATOM     18  C   UNL     1      23.096  11.675  25.140  1.00  0.00     0.167 C 
ATOM     19  H   UNL     1      22.807   7.971  24.583  1.00  0.00     0.159 HD
ATOM     20  H   UNL     1      23.128   9.360  25.519  1.00  0.00     0.159 HD
ENDBRANCH   1   8
BRANCH   3  21
ATOM     21  N   UNL     1      26.490  10.016  20.775  1.00  0.00    -0.321 N 
ATOM     22  C   UNL     1      27.606  10.756  21.125  1.00  0.00     0.274 C 
ATOM     23  O   UNL     1      27.747  11.955  20.925  1.00  0.00    -0.267 OA
ATOM     24  H   UNL     1      26.565   9.042  20.894  1.00  0.00     0.170 HD
BRANCH  22  25
ATOM     25  C   UNL     1      28.672   9.999  21.825  1.00  0.00     0.128 A 
ATOM     26  N   UNL     1      29.652  10.725  22.373  1.00  0.00    -0.248 NA
ATOM     27  C   UNL     1      28.610   8.618  21.891  1.00  0.00     0.037 A 
ATOM     28  C   UNL     1      30.632  10.062  23.008  1.00  0.00     0.151 A 
ATOM     29  C   UNL     1      29.631   7.963  22.558  1.00  0.00     0.043 A 
ATOM     30  C   UNL     1      30.661   8.690  23.122  1.00  0.00     0.141 A 
ATOM     31  F   UNL     1      31.669   8.099  23.787  1.00  0.00    -0.205 F 
ENDBRANCH  22  25
ENDBRANCH   3  21
TORSDOF 3
ENDMDL
MODEL 2
REMARK VINA RESULT:    -8.548      4.777      7.426
REMARK INTER + INTRA:         -10.377
REMARK INTER:                  -9.974
REMARK INTRA:                  -0.403
REMARK UNBOUND:                -0.331
REMARK SMILES CN1C(N)=N[C@](C)(c2cc(NC(=O)c3ccc(F)cn3)ccc2F)CS1(=O)=O
REMARK SMILES IDX 8 1 9 2 10 3 21 4 22 5 23 6 24 7 6 8 25 9 5 10 26 11 3 12
REMARK SMILES IDX 27 13 2 14 28 15 4 16 7 17 1 18 11 21 12 22 13 23 14 25
REMARK SMILES IDX 20 26 15 27 19 28 16 29 17 30 18 31
REMARK H PARENT 4 19 4 20 11 24
ROOT
ATOM      1  C   UNL     1      20.665  12.402  26.767  1.00  0.00     0.018 A 
ATOM      2  C   UNL     1      21.065  12.724  25.471  1.00  0.00     0.035 A 
ATOM      3  C   UNL     1      21.431  11.765  24.554  1.00  0.00     0.042 A 
ATOM      4  C   UNL     1      21.433  10.421  24.904  1.00  0.00     0.029 A 
ATOM      5  C   UNL     1      21.035  10.083  26.186  1.00  0.00     0.042 A 
ATOM      6  C   UNL     1      20.641  11.053  27.085  1.00  0.00     0.129 A 
ATOM      7  F   UNL     1      20.226  10.692  28.327  1.00  0.00    -0.207 F 
ENDROOT
BRANCH   1   8
ATOM      8  C   UNL     1      20.264  13.485  27.757  1.00  0.00     0.105 C 
ATOM      9  C   UNL     1      18.957  13.241  28.479  1.00  0.00     0.195 C 
ATOM     10  N   UNL     1      20.259  14.813  27.145  1.00  0.00    -0.240 NA
ATOM     11  S   UNL     1      17.601  13.225  27.333  1.00  0.00     0.239 S 
ATOM     12  C   UNL     1      19.255  15.235  26.441  1.00  0.00     0.205 C 
ATOM     13  O   UNL     1      16.428  13.649  28.075  1.00  0.00    -0.206 OA
ATOM     14  N   UNL     1      18.044  14.523  26.293  1.00  0.00    -0.243 N 
ATOM     15  O   UNL     1      17.643  12.076  26.483  1.00  0.00    -0.206 OA
ATOM     16  N   UNL     1      19.275  16.440  25.790  1.00  0.00    -0.369 N 
ATOM     17  C   UNL     1      21.352  13.604  28.827  1.00  0.00     0.044 C 
ATOM     18  C   UNL     1      16.961  14.958  25.389  1.00  0.00     0.167 C 
ATOM     19  H   UNL     1      20.076  17.010  25.834  1.00  0.00     0.159 HD
ATOM     20  H   UNL     1      18.487  16.736  25.279  1.00  0.00     0.159 HD
ENDBRANCH   1   8
BRANCH   3  21
ATOM     21  N   UNL     1      21.815  12.223  23.286  1.00  0.00    -0.321 N 
ATOM     22  C   UNL     1      23.091  12.489  22.822  1.00  0.00     0.274 C 
ATOM     23  O   UNL     1      24.105  12.487  23.508  1.00  0.00    -0.267 OA
ATOM     24  H   UNL     1      21.084  12.374  22.645  1.00  0.00     0.170 HD
BRANCH  22  25
ATOM     25  C   UNL     1      23.192  12.758  21.367  1.00  0.00     0.128 A 
ATOM     26  N   UNL     1      24.426  12.911  20.877  1.00  0.00    -0.248 NA
ATOM     27  C   UNL     1      22.044  12.827  20.596  1.00  0.00     0.037 A 
ATOM     28  C   UNL     1      24.543  13.160  19.562  1.00  0.00     0.151 A 
ATOM     29  C   UNL     1      22.197  13.079  19.244  1.00  0.00     0.043 A 
ATOM     30  C   UNL     1      23.461  13.253  18.715  1.00  0.00     0.141 A 
ATOM     31  F   UNL     1      23.659  13.490  17.407  1.00  0.00    -0.205 F 
ENDBRANCH  22  25
ENDBRANCH   3  21
TORSDOF 3
ENDMDL
MODEL 3
REMARK VINA RESULT:    -8.364      3.373      6.939
REMARK INTER + INTRA:         -10.161
REMARK INTER:                  -9.761
REMARK INTRA:                  -0.401
REMARK UNBOUND:                -0.331
REMARK SMILES CN1C(N)=N[C@](C)(c2cc(NC(=O)c3ccc(F)cn3)ccc2F)CS1(=O)=O
REMARK SMILES IDX 8 1 9 2 10 3 21 4 22 5 23 6 24 7 6 8 25 9 5 10 26 11 3 12
REMARK SMILES IDX 27 13 2 14 28 15 4 16 7 17 1 18 11 21 12 22 13 23 14 25
REMARK SMILES IDX 20 26 15 27 19 28 16 29 17 30 18 31
REMARK H PARENT 4 19 4 20 11 24
ROOT
ATOM      1  C   UNL     1      24.049  12.355  19.972  1.00  0.00     0.018 A 
ATOM      2  C   UNL     1      23.569  12.598  21.258  1.00  0.00     0.035 A 
ATOM      3  C   UNL     1      22.452  11.967  21.757  1.00  0.00     0.042 A 
ATOM      4  C   UNL     1      21.741  11.068  20.972  1.00  0.00     0.029 A 
ATOM      5  C   UNL     1      22.206  10.812  19.694  1.00  0.00     0.042 A 
ATOM      6  C   UNL     1      23.346  11.428  19.218  1.00  0.00     0.129 A 
ATOM      7  F   UNL     1      23.798  11.137  17.971  1.00  0.00    -0.207 F 
ENDROOT
BRANCH   1   8
ATOM      8  C   UNL     1      25.289  13.065  19.450  1.00  0.00     0.105 C 
ATOM      9  C   UNL     1      26.412  12.153  19.009  1.00  0.00     0.195 C 
ATOM     10  N   UNL     1      25.792  14.059  20.397  1.00  0.00    -0.240 NA
ATOM     11  S   UNL     1      27.036  11.218  20.382  1.00  0.00     0.239 S 
ATOM     12  C   UNL     1      26.538  13.724  21.403  1.00  0.00     0.205 C 
ATOM     13  O   UNL     1      28.424  10.917  20.082  1.00  0.00    -0.206 OA
ATOM     14  N   UNL     1      27.030  12.417  21.617  1.00  0.00    -0.243 N 
ATOM     15  O   UNL     1      26.086  10.252  20.838  1.00  0.00    -0.206 OA
ATOM     16  N   UNL     1      26.943  14.631  22.347  1.00  0.00    -0.369 N 
ATOM     17  C   UNL     1      24.898  13.914  18.237  1.00  0.00     0.044 C 
ATOM     18  C   UNL     1      27.773  12.025  22.831  1.00  0.00     0.167 C 
ATOM     19  H   UNL     1      26.652  15.569  22.284  1.00  0.00     0.159 HD
ATOM     20  H   UNL     1      27.525  14.344  23.087  1.00  0.00     0.159 HD
ENDBRANCH   1   8
BRANCH   3  21
ATOM     21  N   UNL     1      22.073  12.303  23.064  1.00  0.00    -0.321 N 
ATOM     22  C   UNL     1      22.335  11.616  24.235  1.00  0.00     0.274 C 
ATOM     23  O   UNL     1      22.847  10.506  24.301  1.00  0.00    -0.267 OA
ATOM     24  H   UNL     1      21.554  13.135  23.160  1.00  0.00     0.170 HD
BRANCH  22  25
ATOM     25  C   UNL     1      21.984  12.335  25.484  1.00  0.00     0.128 A 
ATOM     26  N   UNL     1      22.995  12.609  26.315  1.00  0.00    -0.248 NA
ATOM     27  C   UNL     1      20.669  12.693  25.728  1.00  0.00     0.037 A 
ATOM     28  C   UNL     1      22.700  13.256  27.454  1.00  0.00     0.151 A 
ATOM     29  C   UNL     1      20.398  13.365  26.908  1.00  0.00     0.043 A 
ATOM     30  C   UNL     1      21.424  13.649  27.789  1.00  0.00     0.141 A 
ATOM     31  F   UNL     1      21.210  14.306  28.941  1.00  0.00    -0.205 F 
ENDBRANCH  22  25
ENDBRANCH   3  21
TORSDOF 3
ENDMDL
MODEL 4
REMARK VINA RESULT:    -8.360      1.957      2.841
REMARK INTER + INTRA:         -10.157
REMARK INTER:                  -9.833
REMARK INTRA:                  -0.324
REMARK UNBOUND:                -0.331
REMARK SMILES CN1C(N)=N[C@](C)(c2cc(NC(=O)c3ccc(F)cn3)ccc2F)CS1(=O)=O
REMARK SMILES IDX 8 1 9 2 10 3 21 4 22 5 23 6 24 7 6 8 25 9 5 10 26 11 3 12
REMARK SMILES IDX 27 13 2 14 28 15 4 16 7 17 1 18 11 21 12 22 13 23 14 25
REMARK SMILES IDX 20 26 15 27 19 28 16 29 17 30 18 31
REMARK H PARENT 4 19 4 20 11 24
ROOT
ATOM      1  C   UNL     1      25.366  12.453  19.907  1.00  0.00     0.018 A 
ATOM      2  C   UNL     1      26.288  11.547  20.427  1.00  0.00     0.035 A 
ATOM      3  C   UNL     1      27.564  11.919  20.786  1.00  0.00     0.042 A 
ATOM      4  C   UNL     1      27.988  13.231  20.617  1.00  0.00     0.029 A 
ATOM      5  C   UNL     1      27.084  14.145  20.105  1.00  0.00     0.042 A 
ATOM      6  C   UNL     1      25.797  13.764  19.780  1.00  0.00     0.129 A 
ATOM      7  F   UNL     1      24.921  14.687  19.307  1.00  0.00    -0.207 F 
ENDROOT
BRANCH   1   8
ATOM      8  C   UNL     1      23.962  12.012  19.523  1.00  0.00     0.105 C 
ATOM      9  C   UNL     1      22.843  12.766  20.208  1.00  0.00     0.195 C 
ATOM     10  N   UNL     1      23.774  10.572  19.693  1.00  0.00    -0.240 NA
ATOM     11  S   UNL     1      22.883  12.491  21.961  1.00  0.00     0.239 S 
ATOM     12  C   UNL     1      23.505  10.051  20.850  1.00  0.00     0.205 C 
ATOM     13  O   UNL     1      21.520  12.645  22.435  1.00  0.00    -0.206 OA
ATOM     14  N   UNL     1      23.255  10.811  22.015  1.00  0.00    -0.243 N 
ATOM     15  O   UNL     1      24.019  13.112  22.567  1.00  0.00    -0.206 OA
ATOM     16  N   UNL     1      23.414   8.698  21.040  1.00  0.00    -0.369 N 
ATOM     17  C   UNL     1      23.777  12.207  18.016  1.00  0.00     0.044 C 
ATOM     18  C   UNL     1      23.074  10.204  23.348  1.00  0.00     0.167 C 
ATOM     19  H   UNL     1      23.572   8.084  20.286  1.00  0.00     0.159 HD
ATOM     20  H   UNL     1      23.191   8.339  21.929  1.00  0.00     0.159 HD
ENDBRANCH   1   8
BRANCH   3  21
ATOM     21  N   UNL     1      28.393  10.910  21.293  1.00  0.00    -0.321 N 
ATOM     22  C   UNL     1      29.048  10.871  22.511  1.00  0.00     0.274 C 
ATOM     23  O   UNL     1      29.110  11.798  23.308  1.00  0.00    -0.267 OA
ATOM     24  H   UNL     1      28.525  10.129  20.709  1.00  0.00     0.170 HD
BRANCH  22  25
ATOM     25  C   UNL     1      29.681   9.572  22.849  1.00  0.00     0.128 A 
ATOM     26  N   UNL     1      30.763   9.626  23.631  1.00  0.00    -0.248 NA
ATOM     27  C   UNL     1      29.139   8.394  22.366  1.00  0.00     0.037 A 
ATOM     28  C   UNL     1      31.356   8.462  23.947  1.00  0.00     0.151 A 
ATOM     29  C   UNL     1      29.768   7.211  22.714  1.00  0.00     0.043 A 
ATOM     30  C   UNL     1      30.895   7.241  23.511  1.00  0.00     0.141 A 
ATOM     31  F   UNL     1      31.534   6.118  23.882  1.00  0.00    -0.205 F 
ENDBRANCH  22  25
ENDBRANCH   3  21
TORSDOF 3
ENDMDL
MODEL 5
REMARK VINA RESULT:    -8.296      3.563      7.210
REMARK INTER + INTRA:         -10.082
REMARK INTER:                  -9.756
REMARK INTRA:                  -0.325
REMARK UNBOUND:                -0.331
REMARK SMILES CN1C(N)=N[C@](C)(c2cc(NC(=O)c3ccc(F)cn3)ccc2F)CS1(=O)=O
REMARK SMILES IDX 8 1 9 2 10 3 21 4 22 5 23 6 24 7 6 8 25 9 5 10 26 11 3 12
REMARK SMILES IDX 27 13 2 14 28 15 4 16 7 17 1 18 11 21 12 22 13 23 14 25
REMARK SMILES IDX 20 26 15 27 19 28 16 29 17 30 18 31
REMARK H PARENT 4 19 4 20 11 24
ROOT
ATOM      1  C   UNL     1      22.327  11.747  20.783  1.00  0.00     0.018 A 
ATOM      2  C   UNL     1      22.314  12.155  22.116  1.00  0.00     0.035 A 
ATOM      3  C   UNL     1      21.552  11.522  23.072  1.00  0.00     0.042 A 
ATOM      4  C   UNL     1      20.738  10.450  22.727  1.00  0.00     0.029 A 
ATOM      5  C   UNL     1      20.742  10.029  21.409  1.00  0.00     0.042 A 
ATOM      6  C   UNL     1      21.536  10.653  20.467  1.00  0.00     0.129 A 
ATOM      7  F   UNL     1      21.543  10.202  19.187  1.00  0.00    -0.207 F 
ENDROOT
BRANCH   1   8
ATOM      8  C   UNL     1      23.183  12.464  19.751  1.00  0.00     0.105 C 
ATOM      9  C   UNL     1      23.984  11.559  18.842  1.00  0.00     0.195 C 
ATOM     10  N   UNL     1      24.057  13.464  20.362  1.00  0.00    -0.240 NA
ATOM     11  S   UNL     1      25.176  10.631  19.774  1.00  0.00     0.239 S 
ATOM     12  C   UNL     1      25.185  13.137  20.912  1.00  0.00     0.205 C 
ATOM     13  O   UNL     1      26.274  10.340  18.869  1.00  0.00    -0.206 OA
ATOM     14  N   UNL     1      25.730  11.834  20.875  1.00  0.00    -0.243 N 
ATOM     15  O   UNL     1      24.549   9.660  20.615  1.00  0.00    -0.206 OA
ATOM     16  N   UNL     1      25.971  14.048  21.565  1.00  0.00    -0.369 N 
ATOM     17  C   UNL     1      22.272  13.308  18.854  1.00  0.00     0.044 C 
ATOM     18  C   UNL     1      26.951  11.450  21.611  1.00  0.00     0.167 C 
ATOM     19  H   UNL     1      25.677  14.984  21.644  1.00  0.00     0.159 HD
ATOM     20  H   UNL     1      26.831  13.768  21.956  1.00  0.00     0.159 HD
ENDBRANCH   1   8
BRANCH   3  21
ATOM     21  N   UNL     1      21.627  12.034  24.374  1.00  0.00    -0.321 N 
ATOM     22  C   UNL     1      20.659  12.725  25.081  1.00  0.00     0.274 C 
ATOM     23  O   UNL     1      19.597  13.121  24.618  1.00  0.00    -0.267 OA
ATOM     24  H   UNL     1      22.477  11.881  24.847  1.00  0.00     0.170 HD
BRANCH  22  25
ATOM     25  C   UNL     1      20.962  12.950  26.515  1.00  0.00     0.128 A 
ATOM     26  N   UNL     1      20.667  14.160  27.001  1.00  0.00    -0.248 NA
ATOM     27  C   UNL     1      21.509  11.930  27.274  1.00  0.00     0.037 A 
ATOM     28  C   UNL     1      20.936  14.388  28.297  1.00  0.00     0.151 A 
ATOM     29  C   UNL     1      21.769  12.194  28.607  1.00  0.00     0.043 A 
ATOM     30  C   UNL     1      21.485  13.440  29.130  1.00  0.00     0.141 A 
ATOM     31  F   UNL     1      21.712  13.740  30.420  1.00  0.00    -0.205 F 
ENDBRANCH  22  25
ENDBRANCH   3  21
TORSDOF 3
ENDMDL
MODEL 6
REMARK VINA RESULT:    -8.201      3.737      6.934
REMARK INTER + INTRA:          -9.970
REMARK INTER:                 -10.515
REMARK INTRA:                   0.544
REMARK UNBOUND:                -0.331
REMARK SMILES CN1C(N)=N[C@](C)(c2cc(NC(=O)c3ccc(F)cn3)ccc2F)CS1(=O)=O
REMARK SMILES IDX 8 1 9 2 10 3 21 4 22 5 23 6 24 7 6 8 25 9 5 10 26 11 3 12
REMARK SMILES IDX 27 13 2 14 28 15 4 16 7 17 1 18 11 21 12 22 13 23 14 25
REMARK SMILES IDX 20 26 15 27 19 28 16 29 17 30 18 31
REMARK H PARENT 4 19 4 20 11 24
ROOT
ATOM      1  C   UNL     1      24.344  12.058  20.373  1.00  0.00     0.018 A 
ATOM      2  C   UNL     1      23.972  11.909  21.709  1.00  0.00     0.035 A 
ATOM      3  C   UNL     1      22.722  12.256  22.168  1.00  0.00     0.042 A 
ATOM      4  C   UNL     1      21.780  12.797  21.302  1.00  0.00     0.029 A 
ATOM      5  C   UNL     1      22.130  12.949  19.973  1.00  0.00     0.042 A 
ATOM      6  C   UNL     1      23.377  12.567  19.519  1.00  0.00     0.129 A 
ATOM      7  F   UNL     1      23.686  12.700  18.204  1.00  0.00    -0.207 F 
ENDROOT
BRANCH   1   8
ATOM      8  C   UNL     1      25.732  11.663  19.896  1.00  0.00     0.105 C 
ATOM      9  C   UNL     1      26.842  11.883  20.899  1.00  0.00     0.195 C 
ATOM     10  N   UNL     1      26.075  12.293  18.622  1.00  0.00    -0.240 NA
ATOM     11  S   UNL     1      27.023  13.611  21.264  1.00  0.00     0.239 S 
ATOM     12  C   UNL     1      26.518  13.511  18.561  1.00  0.00     0.205 C 
ATOM     13  O   UNL     1      28.409  13.811  21.646  1.00  0.00    -0.206 OA
ATOM     14  N   UNL     1      26.821  14.294  19.697  1.00  0.00    -0.243 N 
ATOM     15  O   UNL     1      25.906  14.114  22.002  1.00  0.00    -0.206 OA
ATOM     16  N   UNL     1      26.758  14.143  17.371  1.00  0.00    -0.369 N 
ATOM     17  C   UNL     1      25.730  10.171  19.550  1.00  0.00     0.044 C 
ATOM     18  C   UNL     1      27.205  15.717  19.614  1.00  0.00     0.167 C 
ATOM     19  H   UNL     1      26.577  13.678  16.522  1.00  0.00     0.159 HD
ATOM     20  H   UNL     1      27.112  15.061  17.363  1.00  0.00     0.159 HD
ENDBRANCH   1   8
BRANCH   3  21
ATOM     21  N   UNL     1      22.478  12.058  23.533  1.00  0.00    -0.321 N 
ATOM     22  C   UNL     1      23.206  12.528  24.611  1.00  0.00     0.274 C 
ATOM     23  O   UNL     1      24.284  13.103  24.536  1.00  0.00    -0.267 OA
ATOM     24  H   UNL     1      21.686  11.515  23.753  1.00  0.00     0.170 HD
BRANCH  22  25
ATOM     25  C   UNL     1      22.575  12.327  25.938  1.00  0.00     0.128 A 
ATOM     26  N   UNL     1      23.099  13.020  26.955  1.00  0.00    -0.248 NA
ATOM     27  C   UNL     1      21.497  11.468  26.068  1.00  0.00     0.037 A 
ATOM     28  C   UNL     1      22.546  12.851  28.168  1.00  0.00     0.151 A 
ATOM     29  C   UNL     1      20.945  11.320  27.328  1.00  0.00     0.043 A 
ATOM     30  C   UNL     1      21.477  12.015  28.398  1.00  0.00     0.141 A 
ATOM     31  F   UNL     1      20.969  11.911  29.637  1.00  0.00    -0.205 F 
ENDBRANCH  22  25
ENDBRANCH   3  21
TORSDOF 3
ENDMDL
MODEL 7
REMARK VINA RESULT:    -8.002      3.692      7.440
REMARK INTER + INTRA:          -9.736
REMARK INTER:                  -9.358
REMARK INTRA:                  -0.379
REMARK UNBOUND:                -0.331
REMARK SMILES CN1C(N)=N[C@](C)(c2cc(NC(=O)c3ccc(F)cn3)ccc2F)CS1(=O)=O
REMARK SMILES IDX 8 1 9 2 10 3 21 4 22 5 23 6 24 7 6 8 25 9 5 10 26 11 3 12
REMARK SMILES IDX 27 13 2 14 28 15 4 16 7 17 1 18 11 21 12 22 13 23 14 25
REMARK SMILES IDX 20 26 15 27 19 28 16 29 17 30 18 31
REMARK H PARENT 4 19 4 20 11 24
ROOT
ATOM      1  C   UNL     1      26.000  12.618  20.442  1.00  0.00     0.018 A 
ATOM      2  C   UNL     1      25.083  12.667  21.491  1.00  0.00     0.035 A 
ATOM      3  C   UNL     1      24.196  11.644  21.742  1.00  0.00     0.042 A 
ATOM      4  C   UNL     1      24.171  10.519  20.928  1.00  0.00     0.029 A 
ATOM      5  C   UNL     1      25.077  10.452  19.883  1.00  0.00     0.042 A 
ATOM      6  C   UNL     1      25.982  11.471  19.663  1.00  0.00     0.129 A 
ATOM      7  F   UNL     1      26.880  11.367  18.649  1.00  0.00    -0.207 F 
ENDROOT
BRANCH   1   8
ATOM      8  C   UNL     1      26.969  13.763  20.192  1.00  0.00     0.105 C 
ATOM      9  C   UNL     1      28.431  13.375  20.187  1.00  0.00     0.195 C 
ATOM     10  N   UNL     1      26.749  14.878  21.111  1.00  0.00    -0.240 NA
ATOM     11  S   UNL     1      28.926  12.773  21.781  1.00  0.00     0.239 S 
ATOM     12  C   UNL     1      27.231  14.874  22.316  1.00  0.00     0.205 C 
ATOM     13  O   UNL     1      30.345  13.052  21.907  1.00  0.00    -0.206 OA
ATOM     14  N   UNL     1      28.096  13.874  22.812  1.00  0.00    -0.243 N 
ATOM     15  O   UNL     1      28.326  11.509  22.077  1.00  0.00    -0.206 OA
ATOM     16  N   UNL     1      26.960  15.870  23.215  1.00  0.00    -0.369 N 
ATOM     17  C   UNL     1      26.663  14.380  18.824  1.00  0.00     0.044 C 
ATOM     18  C   UNL     1      28.536  13.817  24.220  1.00  0.00     0.167 C 
ATOM     19  H   UNL     1      26.366  16.614  22.961  1.00  0.00     0.159 HD
ATOM     20  H   UNL     1      27.358  15.844  24.115  1.00  0.00     0.159 HD
ENDBRANCH   1   8
BRANCH   3  21
ATOM     21  N   UNL     1      23.326  11.820  22.826  1.00  0.00    -0.321 N 
ATOM     22  C   UNL     1      22.052  12.359  22.824  1.00  0.00     0.274 C 
ATOM     23  O   UNL     1      21.518  12.901  21.864  1.00  0.00    -0.267 OA
ATOM     24  H   UNL     1      23.665  11.521  23.701  1.00  0.00     0.170 HD
BRANCH  22  25
ATOM     25  C   UNL     1      21.301  12.215  24.094  1.00  0.00     0.128 A 
ATOM     26  N   UNL     1      21.890  12.707  25.190  1.00  0.00    -0.248 NA
ATOM     27  C   UNL     1      20.058  11.608  24.097  1.00  0.00     0.037 A 
ATOM     28  C   UNL     1      21.230  12.584  26.354  1.00  0.00     0.151 A 
ATOM     29  C   UNL     1      19.401  11.501  25.310  1.00  0.00     0.043 A 
ATOM     30  C   UNL     1      19.993  11.991  26.459  1.00  0.00     0.141 A 
ATOM     31  F   UNL     1      19.389  11.919  27.657  1.00  0.00    -0.205 F 
ENDBRANCH  22  25
ENDBRANCH   3  21
TORSDOF 3
ENDMDL
MODEL 8
REMARK VINA RESULT:    -7.986      4.466      6.406
REMARK INTER + INTRA:          -9.718
REMARK INTER:                  -9.983
REMARK INTRA:                   0.266
REMARK UNBOUND:                -0.331
REMARK SMILES CN1C(N)=N[C@](C)(c2cc(NC(=O)c3ccc(F)cn3)ccc2F)CS1(=O)=O
REMARK SMILES IDX 8 1 9 2 10 3 21 4 22 5 23 6 24 7 6 8 25 9 5 10 26 11 3 12
REMARK SMILES IDX 27 13 2 14 28 15 4 16 7 17 1 18 11 21 12 22 13 23 14 25
REMARK SMILES IDX 20 26 15 27 19 28 16 29 17 30 18 31
REMARK H PARENT 4 19 4 20 11 24
ROOT
ATOM      1  C   UNL     1      19.376  12.167  25.040  1.00  0.00     0.018 A 
ATOM      2  C   UNL     1      20.253  12.592  24.043  1.00  0.00     0.035 A 
ATOM      3  C   UNL     1      20.713  11.746  23.059  1.00  0.00     0.042 A 
ATOM      4  C   UNL     1      20.328  10.412  23.041  1.00  0.00     0.029 A 
ATOM      5  C   UNL     1      19.455   9.974  24.021  1.00  0.00     0.042 A 
ATOM      6  C   UNL     1      18.977  10.841  24.984  1.00  0.00     0.129 A 
ATOM      7  F   UNL     1      18.098  10.393  25.917  1.00  0.00    -0.207 F 
ENDROOT
BRANCH   1   8
ATOM      8  C   UNL     1      18.883  13.126  26.112  1.00  0.00     0.105 C 
ATOM      9  C   UNL     1      19.801  14.294  26.400  1.00  0.00     0.195 C 
ATOM     10  N   UNL     1      18.548  12.434  27.356  1.00  0.00    -0.240 NA
ATOM     11  S   UNL     1      21.351  13.726  27.053  1.00  0.00     0.239 S 
ATOM     12  C   UNL     1      19.458  12.105  28.220  1.00  0.00     0.205 C 
ATOM     13  O   UNL     1      21.868  14.800  27.883  1.00  0.00    -0.206 OA
ATOM     14  N   UNL     1      20.816  12.477  28.110  1.00  0.00    -0.243 N 
ATOM     15  O   UNL     1      22.118  13.033  26.065  1.00  0.00    -0.206 OA
ATOM     16  N   UNL     1      19.169  11.380  29.344  1.00  0.00    -0.369 N 
ATOM     17  C   UNL     1      17.538  13.711  25.672  1.00  0.00     0.044 C 
ATOM     18  C   UNL     1      21.860  11.992  29.034  1.00  0.00     0.167 C 
ATOM     19  H   UNL     1      18.248  11.074  29.510  1.00  0.00     0.159 HD
ATOM     20  H   UNL     1      19.883  11.164  29.988  1.00  0.00     0.159 HD
ENDBRANCH   1   8
BRANCH   3  21
ATOM     21  N   UNL     1      21.592  12.298  22.118  1.00  0.00    -0.321 N 
ATOM     22  C   UNL     1      22.975  12.334  22.155  1.00  0.00     0.274 C 
ATOM     23  O   UNL     1      23.663  11.990  23.107  1.00  0.00    -0.267 OA
ATOM     24  H   UNL     1      21.173  12.713  21.330  1.00  0.00     0.170 HD
BRANCH  22  25
ATOM     25  C   UNL     1      23.630  12.800  20.908  1.00  0.00     0.128 A 
ATOM     26  N   UNL     1      24.944  13.036  20.981  1.00  0.00    -0.248 NA
ATOM     27  C   UNL     1      22.884  12.957  19.753  1.00  0.00     0.037 A 
ATOM     28  C   UNL     1      25.558  13.463  19.865  1.00  0.00     0.151 A 
ATOM     29  C   UNL     1      23.546  13.392  18.618  1.00  0.00     0.043 A 
ATOM     30  C   UNL     1      24.901  13.655  18.671  1.00  0.00     0.141 A 
ATOM     31  F   UNL     1      25.588  14.070  17.593  1.00  0.00    -0.205 F 
ENDBRANCH  22  25
ENDBRANCH   3  21
TORSDOF 3
ENDMDL
MODEL 9
REMARK VINA RESULT:    -7.948      3.850      4.724
REMARK INTER + INTRA:          -9.673
REMARK INTER:                 -10.371
REMARK INTRA:                   0.699
REMARK UNBOUND:                -0.331
REMARK SMILES CN1C(N)=N[C@](C)(c2cc(NC(=O)c3ccc(F)cn3)ccc2F)CS1(=O)=O
REMARK SMILES IDX 8 1 9 2 10 3 21 4 22 5 23 6 24 7 6 8 25 9 5 10 26 11 3 12
REMARK SMILES IDX 27 13 2 14 28 15 4 16 7 17 1 18 11 21 12 22 13 23 14 25
REMARK SMILES IDX 20 26 15 27 19 28 16 29 17 30 18 31
REMARK H PARENT 4 19 4 20 11 24
ROOT
ATOM      1  C   UNL     1      24.089  12.141  20.749  1.00  0.00     0.018 A 
ATOM      2  C   UNL     1      24.697  12.929  21.726  1.00  0.00     0.035 A 
ATOM      3  C   UNL     1      26.026  12.794  22.057  1.00  0.00     0.042 A 
ATOM      4  C   UNL     1      26.813  11.835  21.433  1.00  0.00     0.029 A 
ATOM      5  C   UNL     1      26.227  11.046  20.459  1.00  0.00     0.042 A 
ATOM      6  C   UNL     1      24.901  11.214  20.114  1.00  0.00     0.129 A 
ATOM      7  F   UNL     1      24.357  10.447  19.134  1.00  0.00    -0.207 F 
ENDROOT
BRANCH   1   8
ATOM      8  C   UNL     1      22.618  12.316  20.403  1.00  0.00     0.105 C 
ATOM      9  C   UNL     1      21.796  13.037  21.448  1.00  0.00     0.195 C 
ATOM     10  N   UNL     1      21.983  11.048  20.051  1.00  0.00    -0.240 NA
ATOM     11  S   UNL     1      21.742  12.104  22.957  1.00  0.00     0.239 S 
ATOM     12  C   UNL     1      21.560  10.222  20.958  1.00  0.00     0.205 C 
ATOM     13  O   UNL     1      20.497  12.454  23.616  1.00  0.00    -0.206 OA
ATOM     14  N   UNL     1      21.561  10.507  22.341  1.00  0.00    -0.243 N 
ATOM     15  O   UNL     1      23.015  12.079  23.606  1.00  0.00    -0.206 OA
ATOM     16  N   UNL     1      21.044   8.993  20.644  1.00  0.00    -0.369 N 
ATOM     17  C   UNL     1      22.509  13.126  19.108  1.00  0.00     0.044 C 
ATOM     18  C   UNL     1      21.194   9.511  23.368  1.00  0.00     0.167 C 
ATOM     19  H   UNL     1      21.001   8.703  19.704  1.00  0.00     0.159 HD
ATOM     20  H   UNL     1      20.716   8.400  21.358  1.00  0.00     0.159 HD
ENDBRANCH   1   8
BRANCH   3  21
ATOM     21  N   UNL     1      26.513  13.646  23.057  1.00  0.00    -0.321 N 
ATOM     22  C   UNL     1      26.283  13.588  24.420  1.00  0.00     0.274 C 
ATOM     23  O   UNL     1      25.490  12.834  24.969  1.00  0.00    -0.267 OA
ATOM     24  H   UNL     1      27.094  14.380  22.751  1.00  0.00     0.170 HD
BRANCH  22  25
ATOM     25  C   UNL     1      27.109  14.504  25.242  1.00  0.00     0.128 A 
ATOM     26  N   UNL     1      28.381  14.140  25.439  1.00  0.00    -0.248 NA
ATOM     27  C   UNL     1      26.556  15.668  25.748  1.00  0.00     0.037 A 
ATOM     28  C   UNL     1      29.148  14.953  26.184  1.00  0.00     0.151 A 
ATOM     29  C   UNL     1      27.373  16.487  26.506  1.00  0.00     0.043 A 
ATOM     30  C   UNL     1      28.687  16.127  26.735  1.00  0.00     0.141 A 
ATOM     31  F   UNL     1      29.520  16.896  27.457  1.00  0.00    -0.205 F 
ENDBRANCH  22  25
ENDBRANCH   3  21
TORSDOF 3
ENDMDL
MODEL 10
REMARK VINA RESULT:    -7.870      4.243      5.170
REMARK INTER + INTRA:          -9.581
REMARK INTER:                  -9.182
REMARK INTRA:                  -0.399
REMARK UNBOUND:                -0.331
REMARK SMILES CN1C(N)=N[C@](C)(c2cc(NC(=O)c3ccc(F)cn3)ccc2F)CS1(=O)=O
REMARK SMILES IDX 8 1 9 2 10 3 21 4 22 5 23 6 24 7 6 8 25 9 5 10 26 11 3 12
REMARK SMILES IDX 27 13 2 14 28 15 4 16 7 17 1 18 11 21 12 22 13 23 14 25
REMARK SMILES IDX 20 26 15 27 19 28 16 29 17 30 18 31
REMARK H PARENT 4 19 4 20 11 24
ROOT
ATOM      1  C   UNL     1      26.048  12.251  19.994  1.00  0.00     0.018 A 
ATOM      2  C   UNL     1      26.342  12.781  21.250  1.00  0.00     0.035 A 
ATOM      3  C   UNL     1      27.155  13.880  21.413  1.00  0.00     0.042 A 
ATOM      4  C   UNL     1      27.738  14.493  20.312  1.00  0.00     0.029 A 
ATOM      5  C   UNL     1      27.455  13.982  19.057  1.00  0.00     0.042 A 
ATOM      6  C   UNL     1      26.612  12.899  18.906  1.00  0.00     0.129 A 
ATOM      7  F   UNL     1      26.327  12.436  17.662  1.00  0.00    -0.207 F 
ENDROOT
BRANCH   1   8
ATOM      8  C   UNL     1      25.144  11.037  19.846  1.00  0.00     0.105 C 
ATOM      9  C   UNL     1      23.986  11.214  18.888  1.00  0.00     0.195 C 
ATOM     10  N   UNL     1      24.658  10.554  21.137  1.00  0.00    -0.240 NA
ATOM     11  S   UNL     1      22.877  12.471  19.472  1.00  0.00     0.239 S 
ATOM     12  C   UNL     1      23.644  11.103  21.733  1.00  0.00     0.205 C 
ATOM     13  O   UNL     1      21.565  12.142  18.944  1.00  0.00    -0.206 OA
ATOM     14  N   UNL     1      22.851  12.120  21.157  1.00  0.00    -0.243 N 
ATOM     15  O   UNL     1      23.468  13.770  19.402  1.00  0.00    -0.206 OA
ATOM     16  N   UNL     1      23.234  10.719  22.981  1.00  0.00    -0.369 N 
ATOM     17  C   UNL     1      25.976   9.860  19.330  1.00  0.00     0.044 C 
ATOM     18  C   UNL     1      21.780  12.820  21.894  1.00  0.00     0.167 C 
ATOM     19  H   UNL     1      23.725  10.015  23.465  1.00  0.00     0.159 HD
ATOM     20  H   UNL     1      22.449  11.145  23.395  1.00  0.00     0.159 HD
ENDBRANCH   1   8
BRANCH   3  21
ATOM     21  N   UNL     1      27.371  14.310  22.729  1.00  0.00    -0.321 N 
ATOM     22  C   UNL     1      28.281  13.825  23.650  1.00  0.00     0.274 C 
ATOM     23  O   UNL     1      28.975  12.828  23.498  1.00  0.00    -0.267 OA
ATOM     24  H   UNL     1      26.802  15.053  23.036  1.00  0.00     0.170 HD
BRANCH  22  25
ATOM     25  C   UNL     1      28.417  14.628  24.890  1.00  0.00     0.128 A 
ATOM     26  N   UNL     1      29.611  14.594  25.491  1.00  0.00    -0.248 NA
ATOM     27  C   UNL     1      27.343  15.366  25.356  1.00  0.00     0.037 A 
ATOM     28  C   UNL     1      29.756  15.311  26.618  1.00  0.00     0.151 A 
ATOM     29  C   UNL     1      27.525  16.099  26.516  1.00  0.00     0.043 A 
ATOM     30  C   UNL     1      28.746  16.070  27.162  1.00  0.00     0.141 A 
ATOM     31  F   UNL     1      28.973  16.772  28.285  1.00  0.00    -0.205 F 
ENDBRANCH  22  25
ENDBRANCH   3  21
TORSDOF 3
ENDMDL
MODEL 11
REMARK VINA RESULT:    -7.400      4.129      5.794
REMARK INTER + INTRA:          -9.029
REMARK INTER:                  -8.880
REMARK INTRA:                  -0.148
REMARK UNBOUND:                -0.331
REMARK SMILES CN1C(N)=N[C@](C)(c2cc(NC(=O)c3ccc(F)cn3)ccc2F)CS1(=O)=O
REMARK SMILES IDX 8 1 9 2 10 3 21 4 22 5 23 6 24 7 6 8 25 9 5 10 26 11 3 12
REMARK SMILES IDX 27 13 2 14 28 15 4 16 7 17 1 18 11 21 12 22 13 23 14 25
REMARK SMILES IDX 20 26 15 27 19 28 16 29 17 30 18 31
REMARK H PARENT 4 19 4 20 11 24
ROOT
ATOM      1  C   UNL     1      23.180  12.262  21.889  1.00  0.00     0.018 A 
ATOM      2  C   UNL     1      24.126  12.860  22.719  1.00  0.00     0.035 A 
ATOM      3  C   UNL     1      24.134  12.671  24.083  1.00  0.00     0.042 A 
ATOM      4  C   UNL     1      23.166  11.880  24.689  1.00  0.00     0.029 A 
ATOM      5  C   UNL     1      22.220  11.276  23.880  1.00  0.00     0.042 A 
ATOM      6  C   UNL     1      22.244  11.448  22.510  1.00  0.00     0.129 A 
ATOM      7  F   UNL     1      21.322  10.820  21.736  1.00  0.00    -0.207 F 
ENDROOT
BRANCH   1   8
ATOM      8  C   UNL     1      23.199  12.487  20.385  1.00  0.00     0.105 C 
ATOM      9  C   UNL     1      23.333  11.233  19.551  1.00  0.00     0.195 C 
ATOM     10  N   UNL     1      24.214  13.463  19.990  1.00  0.00    -0.240 NA
ATOM     11  S   UNL     1      24.891  10.439  19.856  1.00  0.00     0.239 S 
ATOM     12  C   UNL     1      25.460  13.132  19.849  1.00  0.00     0.205 C 
ATOM     13  O   UNL     1      25.230   9.714  18.645  1.00  0.00    -0.206 OA
ATOM     14  N   UNL     1      25.935  11.805  19.942  1.00  0.00    -0.243 N 
ATOM     15  O   UNL     1      24.949   9.880  21.171  1.00  0.00    -0.206 OA
ATOM     16  N   UNL     1      26.433  14.052  19.566  1.00  0.00    -0.369 N 
ATOM     17  C   UNL     1      21.891  13.165  19.970  1.00  0.00     0.044 C 
ATOM     18  C   UNL     1      27.370  11.459  19.903  1.00  0.00     0.167 C 
ATOM     19  H   UNL     1      26.200  15.004  19.480  1.00  0.00     0.159 HD
ATOM     20  H   UNL     1      27.367  13.761  19.447  1.00  0.00     0.159 HD
ENDBRANCH   1   8
BRANCH   3  21
ATOM     21  N   UNL     1      25.138  13.332  24.802  1.00  0.00    -0.321 N 
ATOM     22  C   UNL     1      26.466  13.508  24.456  1.00  0.00     0.274 C 
ATOM     23  O   UNL     1      27.019  12.988  23.495  1.00  0.00    -0.267 OA
ATOM     24  H   UNL     1      24.864  13.721  25.664  1.00  0.00     0.170 HD
BRANCH  22  25
ATOM     25  C   UNL     1      27.230  14.435  25.326  1.00  0.00     0.128 A 
ATOM     26  N   UNL     1      28.515  14.129  25.535  1.00  0.00    -0.248 NA
ATOM     27  C   UNL     1      26.609  15.549  25.862  1.00  0.00     0.037 A 
ATOM     28  C   UNL     1      29.226  14.951  26.323  1.00  0.00     0.151 A 
ATOM     29  C   UNL     1      27.369  16.381  26.665  1.00  0.00     0.043 A 
ATOM     30  C   UNL     1      28.696  16.080  26.906  1.00  0.00     0.141 A 
ATOM     31  F   UNL     1      29.475  16.862  27.671  1.00  0.00    -0.205 F 
ENDBRANCH  22  25
ENDBRANCH   3  21
TORSDOF 3
ENDMDL
MODEL 12
REMARK VINA RESULT:    -7.385      4.495      7.741
REMARK INTER + INTRA:          -9.011
REMARK INTER:                  -8.625
REMARK INTRA:                  -0.386
REMARK UNBOUND:                -0.331
REMARK SMILES CN1C(N)=N[C@](C)(c2cc(NC(=O)c3ccc(F)cn3)ccc2F)CS1(=O)=O
REMARK SMILES IDX 8 1 9 2 10 3 21 4 22 5 23 6 24 7 6 8 25 9 5 10 26 11 3 12
REMARK SMILES IDX 27 13 2 14 28 15 4 16 7 17 1 18 11 21 12 22 13 23 14 25
REMARK SMILES IDX 20 26 15 27 19 28 16 29 17 30 18 31
REMARK H PARENT 4 19 4 20 11 24
ROOT
ATOM      1  C   UNL     1      27.045  14.107  21.376  1.00  0.00     0.018 A 
ATOM      2  C   UNL     1      25.919  13.778  22.128  1.00  0.00     0.035 A 
ATOM      3  C   UNL     1      25.259  12.579  21.981  1.00  0.00     0.042 A 
ATOM      4  C   UNL     1      25.690  11.650  21.043  1.00  0.00     0.029 A 
ATOM      5  C   UNL     1      26.809  11.957  20.289  1.00  0.00     0.042 A 
ATOM      6  C   UNL     1      27.479  13.151  20.470  1.00  0.00     0.129 A 
ATOM      7  F   UNL     1      28.592  13.416  19.738  1.00  0.00    -0.207 F 
ENDROOT
BRANCH   1   8
ATOM      8  C   UNL     1      27.754  15.439  21.564  1.00  0.00     0.105 C 
ATOM      9  C   UNL     1      29.230  15.340  21.877  1.00  0.00     0.195 C 
ATOM     10  N   UNL     1      27.085  16.281  22.554  1.00  0.00    -0.240 NA
ATOM     11  S   UNL     1      29.488  14.527  23.434  1.00  0.00     0.239 S 
ATOM     12  C   UNL     1      27.279  16.121  23.827  1.00  0.00     0.205 C 
ATOM     13  O   UNL     1      30.740  15.035  23.964  1.00  0.00    -0.206 OA
ATOM     14  N   UNL     1      28.220  15.219  24.371  1.00  0.00    -0.243 N 
ATOM     15  O   UNL     1      29.146  13.141  23.368  1.00  0.00    -0.206 OA
ATOM     16  N   UNL     1      26.593  16.842  24.767  1.00  0.00    -0.369 N 
ATOM     17  C   UNL     1      27.623  16.255  20.275  1.00  0.00     0.044 C 
ATOM     18  C   UNL     1      28.340  14.958  25.819  1.00  0.00     0.167 C 
ATOM     19  H   UNL     1      25.914  17.498  24.486  1.00  0.00     0.159 HD
ATOM     20  H   UNL     1      26.779  16.707  25.724  1.00  0.00     0.159 HD
ENDBRANCH   1   8
BRANCH   3  21
ATOM     21  N   UNL     1      24.139  12.375  22.798  1.00  0.00    -0.321 N 
ATOM     22  C   UNL     1      22.802  12.505  22.467  1.00  0.00     0.274 C 
ATOM     23  O   UNL     1      22.378  12.957  21.411  1.00  0.00    -0.267 OA
ATOM     24  H   UNL     1      24.328  12.103  23.725  1.00  0.00     0.170 HD
BRANCH  22  25
ATOM     25  C   UNL     1      21.846  12.014  23.489  1.00  0.00     0.128 A 
ATOM     26  N   UNL     1      21.947  12.558  24.706  1.00  0.00    -0.248 NA
ATOM     27  C   UNL     1      20.910  11.051  23.153  1.00  0.00     0.037 A 
ATOM     28  C   UNL     1      21.095  12.126  25.650  1.00  0.00     0.151 A 
ATOM     29  C   UNL     1      20.041  10.631  24.145  1.00  0.00     0.043 A 
ATOM     30  C   UNL     1      20.134  11.169  25.414  1.00  0.00     0.141 A 
ATOM     31  F   UNL     1      19.307  10.798  26.407  1.00  0.00    -0.205 F 
ENDBRANCH  22  25
ENDBRANCH   3  21
TORSDOF 3
ENDMDL
MODEL 13
REMARK VINA RESULT:    -7.376      4.034      4.891
REMARK INTER + INTRA:          -9.001
REMARK INTER:                  -8.806
REMARK INTRA:                  -0.195
REMARK UNBOUND:                -0.331
REMARK SMILES CN1C(N)=N[C@](C)(c2cc(NC(=O)c3ccc(F)cn3)ccc2F)CS1(=O)=O
REMARK SMILES IDX 8 1 9 2 10 3 21 4 22 5 23 6 24 7 6 8 25 9 5 10 26 11 3 12
REMARK SMILES IDX 27 13 2 14 28 15 4 16 7 17 1 18 11 21 12 22 13 23 14 25
REMARK SMILES IDX 20 26 15 27 19 28 16 29 17 30 18 31
REMARK H PARENT 4 19 4 20 11 24
ROOT
ATOM      1  C   UNL     1      22.052  11.325  23.744  1.00  0.00     0.018 A 
ATOM      2  C   UNL     1      23.117  11.963  24.378  1.00  0.00     0.035 A 
ATOM      3  C   UNL     1      24.018  12.747  23.694  1.00  0.00     0.042 A 
ATOM      4  C   UNL     1      23.906  12.912  22.319  1.00  0.00     0.029 A 
ATOM      5  C   UNL     1      22.852  12.289  21.674  1.00  0.00     0.042 A 
ATOM      6  C   UNL     1      21.937  11.531  22.378  1.00  0.00     0.129 A 
ATOM      7  F   UNL     1      20.896  10.954  21.725  1.00  0.00    -0.207 F 
ENDROOT
BRANCH   1   8
ATOM      8  C   UNL     1      21.071  10.468  24.528  1.00  0.00     0.105 C 
ATOM      9  C   UNL     1      19.618  10.867  24.390  1.00  0.00     0.195 C 
ATOM     10  N   UNL     1      21.433  10.373  25.942  1.00  0.00    -0.240 NA
ATOM     11  S   UNL     1      19.349  12.492  25.053  1.00  0.00     0.239 S 
ATOM     12  C   UNL     1      21.127  11.308  26.788  1.00  0.00     0.205 C 
ATOM     13  O   UNL     1      17.966  12.535  25.492  1.00  0.00    -0.206 OA
ATOM     14  N   UNL     1      20.330  12.429  26.466  1.00  0.00    -0.243 N 
ATOM     15  O   UNL     1      19.969  13.499  24.250  1.00  0.00    -0.206 OA
ATOM     16  N   UNL     1      21.537  11.274  28.094  1.00  0.00    -0.369 N 
ATOM     17  C   UNL     1      21.186   9.019  24.047  1.00  0.00     0.044 C 
ATOM     18  C   UNL     1      20.095  13.545  27.404  1.00  0.00     0.167 C 
ATOM     19  H   UNL     1      22.097  10.530  28.415  1.00  0.00     0.159 HD
ATOM     20  H   UNL     1      21.270  11.992  28.713  1.00  0.00     0.159 HD
ENDBRANCH   1   8
BRANCH   3  21
ATOM     21  N   UNL     1      25.044  13.330  24.450  1.00  0.00    -0.321 N 
ATOM     22  C   UNL     1      26.386  13.441  24.132  1.00  0.00     0.274 C 
ATOM     23  O   UNL     1      26.926  12.918  23.166  1.00  0.00    -0.267 OA
ATOM     24  H   UNL     1      24.775  13.709  25.318  1.00  0.00     0.170 HD
BRANCH  22  25
ATOM     25  C   UNL     1      27.183  14.298  25.042  1.00  0.00     0.128 A 
ATOM     26  N   UNL     1      28.473  13.974  25.184  1.00  0.00    -0.248 NA
ATOM     27  C   UNL     1      26.586  15.371  25.681  1.00  0.00     0.037 A 
ATOM     28  C   UNL     1      29.214  14.734  26.007  1.00  0.00     0.151 A 
ATOM     29  C   UNL     1      27.378  16.139  26.517  1.00  0.00     0.043 A 
ATOM     30  C   UNL     1      28.710  15.817  26.690  1.00  0.00     0.141 A 
ATOM     31  F   UNL     1      29.519  16.538  27.484  1.00  0.00    -0.205 F 
ENDBRANCH  22  25
ENDBRANCH   3  21
TORSDOF 3
ENDMDL
MODEL 14
REMARK VINA RESULT:    -7.370      3.536      7.696
REMARK INTER + INTRA:          -8.993
REMARK INTER:                  -8.630
REMARK INTRA:                  -0.363
REMARK UNBOUND:                -0.331
REMARK SMILES CN1C(N)=N[C@](C)(c2cc(NC(=O)c3ccc(F)cn3)ccc2F)CS1(=O)=O
REMARK SMILES IDX 8 1 9 2 10 3 21 4 22 5 23 6 24 7 6 8 25 9 5 10 26 11 3 12
REMARK SMILES IDX 27 13 2 14 28 15 4 16 7 17 1 18 11 21 12 22 13 23 14 25
REMARK SMILES IDX 20 26 15 27 19 28 16 29 17 30 18 31
REMARK H PARENT 4 19 4 20 11 24
ROOT
ATOM      1  C   UNL     1      26.286  12.340  21.808  1.00  0.00     0.018 A 
ATOM      2  C   UNL     1      24.957  12.250  22.219  1.00  0.00     0.035 A 
ATOM      3  C   UNL     1      24.519  12.774  23.414  1.00  0.00     0.042 A 
ATOM      4  C   UNL     1      25.409  13.403  24.275  1.00  0.00     0.029 A 
ATOM      5  C   UNL     1      26.732  13.504  23.882  1.00  0.00     0.042 A 
ATOM      6  C   UNL     1      27.151  13.002  22.666  1.00  0.00     0.129 A 
ATOM      7  F   UNL     1      28.449  13.141  22.291  1.00  0.00    -0.207 F 
ENDROOT
BRANCH   1   8
ATOM      8  C   UNL     1      26.739  11.754  20.480  1.00  0.00     0.105 C 
ATOM      9  C   UNL     1      27.391  12.738  19.534  1.00  0.00     0.195 C 
ATOM     10  N   UNL     1      25.660  11.041  19.798  1.00  0.00    -0.240 NA
ATOM     11  S   UNL     1      26.237  13.994  19.043  1.00  0.00     0.239 S 
ATOM     12  C   UNL     1      24.767  11.667  19.095  1.00  0.00     0.205 C 
ATOM     13  O   UNL     1      26.657  14.452  17.731  1.00  0.00    -0.206 OA
ATOM     14  N   UNL     1      24.812  13.053  18.823  1.00  0.00    -0.243 N 
ATOM     15  O   UNL     1      25.908  14.862  20.130  1.00  0.00    -0.206 OA
ATOM     16  N   UNL     1      23.702  11.023  18.525  1.00  0.00    -0.369 N 
ATOM     17  C   UNL     1      27.762  10.647  20.752  1.00  0.00     0.044 C 
ATOM     18  C   UNL     1      23.726  13.772  18.127  1.00  0.00     0.167 C 
ATOM     19  H   UNL     1      23.584  10.055  18.657  1.00  0.00     0.159 HD
ATOM     20  H   UNL     1      23.054  11.528  17.982  1.00  0.00     0.159 HD
ENDBRANCH   1   8
BRANCH   3  21
ATOM     21  N   UNL     1      23.159  12.613  23.708  1.00  0.00    -0.321 N 
ATOM     22  C   UNL     1      22.529  11.522  24.280  1.00  0.00     0.274 C 
ATOM     23  O   UNL     1      23.059  10.443  24.509  1.00  0.00    -0.267 OA
ATOM     24  H   UNL     1      22.577  13.374  23.480  1.00  0.00     0.170 HD
BRANCH  22  25
ATOM     25  C   UNL     1      21.111  11.736  24.660  1.00  0.00     0.128 A 
ATOM     26  N   UNL     1      20.777  12.978  25.026  1.00  0.00    -0.248 NA
ATOM     27  C   UNL     1      20.216  10.681  24.613  1.00  0.00     0.037 A 
ATOM     28  C   UNL     1      19.499  13.195  25.379  1.00  0.00     0.151 A 
ATOM     29  C   UNL     1      18.906  10.938  24.976  1.00  0.00     0.043 A 
ATOM     30  C   UNL     1      18.538  12.210  25.370  1.00  0.00     0.141 A 
ATOM     31  F   UNL     1      17.276  12.509  25.722  1.00  0.00    -0.205 F 
ENDBRANCH  22  25
ENDBRANCH   3  21
TORSDOF 3
ENDMDL
MODEL 15
REMARK VINA RESULT:    -7.233      4.397      7.750
REMARK INTER + INTRA:          -8.833
REMARK INTER:                  -8.493
REMARK INTRA:                  -0.339
REMARK UNBOUND:                -0.331
REMARK SMILES CN1C(N)=N[C@](C)(c2cc(NC(=O)c3ccc(F)cn3)ccc2F)CS1(=O)=O
REMARK SMILES IDX 8 1 9 2 10 3 21 4 22 5 23 6 24 7 6 8 25 9 5 10 26 11 3 12
REMARK SMILES IDX 27 13 2 14 28 15 4 16 7 17 1 18 11 21 12 22 13 23 14 25
REMARK SMILES IDX 20 26 15 27 19 28 16 29 17 30 18 31
REMARK H PARENT 4 19 4 20 11 24
ROOT
ATOM      1  C   UNL     1      27.541  14.182  21.428  1.00  0.00     0.018 A 
ATOM      2  C   UNL     1      26.287  13.750  21.858  1.00  0.00     0.035 A 
ATOM      3  C   UNL     1      25.804  12.493  21.575  1.00  0.00     0.042 A 
ATOM      4  C   UNL     1      26.557  11.604  20.817  1.00  0.00     0.029 A 
ATOM      5  C   UNL     1      27.805  12.014  20.385  1.00  0.00     0.042 A 
ATOM      6  C   UNL     1      28.291  13.267  20.704  1.00  0.00     0.129 A 
ATOM      7  F   UNL     1      29.531  13.634  20.293  1.00  0.00    -0.207 F 
ENDROOT
BRANCH   1   8
ATOM      8  C   UNL     1      28.048  15.576  21.760  1.00  0.00     0.105 C 
ATOM      9  C   UNL     1      29.456  15.632  22.310  1.00  0.00     0.195 C 
ATOM     10  N   UNL     1      27.134  16.296  22.646  1.00  0.00    -0.240 NA
ATOM     11  S   UNL     1      29.554  14.790  23.869  1.00  0.00     0.239 S 
ATOM     12  C   UNL     1      27.138  16.106  23.929  1.00  0.00     0.205 C 
ATOM     13  O   UNL     1      30.636  15.413  24.609  1.00  0.00    -0.206 OA
ATOM     14  N   UNL     1      28.080  15.294  24.601  1.00  0.00    -0.243 N 
ATOM     15  O   UNL     1      29.394  13.377  23.717  1.00  0.00    -0.206 OA
ATOM     16  N   UNL     1      26.230  16.706  24.759  1.00  0.00    -0.369 N 
ATOM     17  C   UNL     1      28.030  16.425  20.486  1.00  0.00     0.044 C 
ATOM     18  C   UNL     1      27.995  14.989  26.042  1.00  0.00     0.167 C 
ATOM     19  H   UNL     1      25.533  17.291  24.385  1.00  0.00     0.159 HD
ATOM     20  H   UNL     1      26.274  16.552  25.731  1.00  0.00     0.159 HD
ENDBRANCH   1   8
BRANCH   3  21
ATOM     21  N   UNL     1      24.527  12.186  22.063  1.00  0.00    -0.321 N 
ATOM     22  C   UNL     1      23.315  12.259  21.400  1.00  0.00     0.274 C 
ATOM     23  O   UNL     1      23.149  12.739  20.287  1.00  0.00    -0.267 OA
ATOM     24  H   UNL     1      24.488  11.879  22.998  1.00  0.00     0.170 HD
BRANCH  22  25
ATOM     25  C   UNL     1      22.163  11.665  22.120  1.00  0.00     0.128 A 
ATOM     26  N   UNL     1      21.774  10.450  21.718  1.00  0.00    -0.248 NA
ATOM     27  C   UNL     1      21.560  12.362  23.153  1.00  0.00     0.037 A 
ATOM     28  C   UNL     1      20.730   9.894  22.353  1.00  0.00     0.151 A 
ATOM     29  C   UNL     1      20.490  11.760  23.792  1.00  0.00     0.043 A 
ATOM     30  C   UNL     1      20.062  10.510  23.387  1.00  0.00     0.141 A 
ATOM     31  F   UNL     1      19.034   9.882  23.983  1.00  0.00    -0.205 F 
ENDBRANCH  22  25
ENDBRANCH   3  21
TORSDOF 3
ENDMDL
MODEL 16
REMARK VINA RESULT:    -7.220      5.515      8.013
REMARK INTER + INTRA:          -8.817
REMARK INTER:                  -8.448
REMARK INTRA:                  -0.369
REMARK UNBOUND:                -0.331
REMARK SMILES CN1C(N)=N[C@](C)(c2cc(NC(=O)c3ccc(F)cn3)ccc2F)CS1(=O)=O
REMARK SMILES IDX 8 1 9 2 10 3 21 4 22 5 23 6 24 7 6 8 25 9 5 10 26 11 3 12
REMARK SMILES IDX 27 13 2 14 28 15 4 16 7 17 1 18 11 21 12 22 13 23 14 25
REMARK SMILES IDX 20 26 15 27 19 28 16 29 17 30 18 31
REMARK H PARENT 4 19 4 20 11 24
ROOT
ATOM      1  C   UNL     1      26.793  12.482  19.917  1.00  0.00     0.018 A 
ATOM      2  C   UNL     1      27.145  13.370  18.902  1.00  0.00     0.035 A 
ATOM      3  C   UNL     1      26.205  14.029  18.142  1.00  0.00     0.042 A 
ATOM      4  C   UNL     1      24.850  13.808  18.353  1.00  0.00     0.029 A 
ATOM      5  C   UNL     1      24.482  12.933  19.359  1.00  0.00     0.042 A 
ATOM      6  C   UNL     1      25.436  12.303  20.135  1.00  0.00     0.129 A 
ATOM      7  F   UNL     1      25.048  11.471  21.135  1.00  0.00    -0.207 F 
ENDROOT
BRANCH   1   8
ATOM      8  C   UNL     1      27.855  11.771  20.742  1.00  0.00     0.105 C 
ATOM      9  C   UNL     1      27.638  11.812  22.238  1.00  0.00     0.195 C 
ATOM     10  N   UNL     1      29.203  12.235  20.418  1.00  0.00    -0.240 NA
ATOM     11  S   UNL     1      27.717  13.481  22.838  1.00  0.00     0.239 S 
ATOM     12  C   UNL     1      29.690  13.324  20.926  1.00  0.00     0.205 C 
ATOM     13  O   UNL     1      28.161  13.404  24.218  1.00  0.00    -0.206 OA
ATOM     14  N   UNL     1      29.033  14.093  21.913  1.00  0.00    -0.243 N 
ATOM     15  O   UNL     1      26.598  14.253  22.396  1.00  0.00    -0.206 OA
ATOM     16  N   UNL     1      30.915  13.816  20.564  1.00  0.00    -0.369 N 
ATOM     17  C   UNL     1      27.892  10.296  20.334  1.00  0.00     0.044 C 
ATOM     18  C   UNL     1      29.541  15.394  22.390  1.00  0.00     0.167 C 
ATOM     19  H   UNL     1      31.451  13.349  19.882  1.00  0.00     0.159 HD
ATOM     20  H   UNL     1      31.261  14.637  20.985  1.00  0.00     0.159 HD
ENDBRANCH   1   8
BRANCH   3  21
ATOM     21  N   UNL     1      26.692  14.892  17.152  1.00  0.00    -0.321 N 
ATOM     22  C   UNL     1      27.284  16.132  17.312  1.00  0.00     0.274 C 
ATOM     23  O   UNL     1      27.363  16.744  18.369  1.00  0.00    -0.267 OA
ATOM     24  H   UNL     1      26.602  14.575  16.224  1.00  0.00     0.170 HD
BRANCH  22  25
ATOM     25  C   UNL     1      27.887  16.709  16.085  1.00  0.00     0.128 A 
ATOM     26  N   UNL     1      27.432  17.909  15.709  1.00  0.00    -0.248 NA
ATOM     27  C   UNL     1      28.871  16.012  15.406  1.00  0.00     0.037 A 
ATOM     28  C   UNL     1      27.961  18.449  14.599  1.00  0.00     0.151 A 
ATOM     29  C   UNL     1      29.400  16.598  14.269  1.00  0.00     0.043 A 
ATOM     30  C   UNL     1      28.938  17.832  13.852  1.00  0.00     0.141 A 
ATOM     31  F   UNL     1      29.428  18.443  12.761  1.00  0.00    -0.205 F 
ENDBRANCH  22  25
ENDBRANCH   3  21
TORSDOF 3
ENDMDL
MODEL 17
REMARK VINA RESULT:    -7.201      5.258      8.084
REMARK INTER + INTRA:          -8.794
REMARK INTER:                  -9.134
REMARK INTRA:                   0.340
REMARK UNBOUND:                -0.331
REMARK SMILES CN1C(N)=N[C@](C)(c2cc(NC(=O)c3ccc(F)cn3)ccc2F)CS1(=O)=O
REMARK SMILES IDX 8 1 9 2 10 3 21 4 22 5 23 6 24 7 6 8 25 9 5 10 26 11 3 12
REMARK SMILES IDX 27 13 2 14 28 15 4 16 7 17 1 18 11 21 12 22 13 23 14 25
REMARK SMILES IDX 20 26 15 27 19 28 16 29 17 30 18 31
REMARK H PARENT 4 19 4 20 11 24
ROOT
ATOM      1  C   UNL     1      18.207  13.189  25.971  1.00  0.00     0.018 A 
ATOM      2  C   UNL     1      19.032  12.990  24.865  1.00  0.00     0.035 A 
ATOM      3  C   UNL     1      20.341  12.580  24.986  1.00  0.00     0.042 A 
ATOM      4  C   UNL     1      20.897  12.367  26.241  1.00  0.00     0.029 A 
ATOM      5  C   UNL     1      20.092  12.555  27.350  1.00  0.00     0.042 A 
ATOM      6  C   UNL     1      18.772  12.937  27.212  1.00  0.00     0.129 A 
ATOM      7  F   UNL     1      17.995  13.086  28.315  1.00  0.00    -0.207 F 
ENDROOT
BRANCH   1   8
ATOM      8  C   UNL     1      16.765  13.640  25.804  1.00  0.00     0.105 C 
ATOM      9  C   UNL     1      16.536  14.664  24.715  1.00  0.00     0.195 C 
ATOM     10  N   UNL     1      16.187  14.107  27.063  1.00  0.00    -0.240 NA
ATOM     11  S   UNL     1      17.387  16.177  25.088  1.00  0.00     0.239 S 
ATOM     12  C   UNL     1      16.399  15.308  27.505  1.00  0.00     0.205 C 
ATOM     13  O   UNL     1      16.641  17.242  24.442  1.00  0.00    -0.206 OA
ATOM     14  N   UNL     1      17.092  16.302  26.780  1.00  0.00    -0.243 N 
ATOM     15  O   UNL     1      18.805  16.020  24.999  1.00  0.00    -0.206 OA
ATOM     16  N   UNL     1      15.937  15.730  28.723  1.00  0.00    -0.369 N 
ATOM     17  C   UNL     1      15.902  12.422  25.462  1.00  0.00     0.044 C 
ATOM     18  C   UNL     1      17.433  17.622  27.347  1.00  0.00     0.167 C 
ATOM     19  H   UNL     1      15.441  15.109  29.304  1.00  0.00     0.159 HD
ATOM     20  H   UNL     1      16.102  16.655  29.019  1.00  0.00     0.159 HD
ENDBRANCH   1   8
BRANCH   3  21
ATOM     21  N   UNL     1      21.062  12.420  23.795  1.00  0.00    -0.321 N 
ATOM     22  C   UNL     1      21.000  11.377  22.889  1.00  0.00     0.274 C 
ATOM     23  O   UNL     1      20.378  10.336  23.055  1.00  0.00    -0.267 OA
ATOM     24  H   UNL     1      21.692  13.144  23.576  1.00  0.00     0.170 HD
BRANCH  22  25
ATOM     25  C   UNL     1      21.731  11.598  21.618  1.00  0.00     0.128 A 
ATOM     26  N   UNL     1      22.230  10.510  21.024  1.00  0.00    -0.248 NA
ATOM     27  C   UNL     1      21.856  12.878  21.106  1.00  0.00     0.037 A 
ATOM     28  C   UNL     1      22.900  10.686  19.873  1.00  0.00     0.151 A 
ATOM     29  C   UNL     1      22.547  13.027  19.917  1.00  0.00     0.043 A 
ATOM     30  C   UNL     1      23.082  11.919  19.289  1.00  0.00     0.141 A 
ATOM     31  F   UNL     1      23.753  12.013  18.128  1.00  0.00    -0.205 F 
ENDBRANCH  22  25
ENDBRANCH   3  21
TORSDOF 3
ENDMDL
MODEL 18
REMARK VINA RESULT:    -7.184      3.875      7.664
REMARK INTER + INTRA:          -8.775
REMARK INTER:                  -9.150
REMARK INTRA:                   0.375
REMARK UNBOUND:                -0.331
REMARK SMILES CN1C(N)=N[C@](C)(c2cc(NC(=O)c3ccc(F)cn3)ccc2F)CS1(=O)=O
REMARK SMILES IDX 8 1 9 2 10 3 21 4 22 5 23 6 24 7 6 8 25 9 5 10 26 11 3 12
REMARK SMILES IDX 27 13 2 14 28 15 4 16 7 17 1 18 11 21 12 22 13 23 14 25
REMARK SMILES IDX 20 26 15 27 19 28 16 29 17 30 18 31
REMARK H PARENT 4 19 4 20 11 24
ROOT
ATOM      1  C   UNL     1      28.001  13.322  20.698  1.00  0.00     0.018 A 
ATOM      2  C   UNL     1      26.721  12.867  21.013  1.00  0.00     0.035 A 
ATOM      3  C   UNL     1      25.613  13.219  20.275  1.00  0.00     0.042 A 
ATOM      4  C   UNL     1      25.734  14.072  19.186  1.00  0.00     0.029 A 
ATOM      5  C   UNL     1      26.998  14.530  18.857  1.00  0.00     0.042 A 
ATOM      6  C   UNL     1      28.105  14.144  19.586  1.00  0.00     0.129 A 
ATOM      7  F   UNL     1      29.337  14.584  19.224  1.00  0.00    -0.207 F 
ENDROOT
BRANCH   1   8
ATOM      8  C   UNL     1      29.206  12.913  21.530  1.00  0.00     0.105 C 
ATOM      9  C   UNL     1      28.906  12.589  22.977  1.00  0.00     0.195 C 
ATOM     10  N   UNL     1      30.287  13.894  21.449  1.00  0.00    -0.240 NA
ATOM     11  S   UNL     1      28.300  14.025  23.828  1.00  0.00     0.239 S 
ATOM     12  C   UNL     1      30.286  14.970  22.174  1.00  0.00     0.205 C 
ATOM     13  O   UNL     1      28.661  13.860  25.225  1.00  0.00    -0.206 OA
ATOM     14  N   UNL     1      29.328  15.242  23.176  1.00  0.00    -0.243 N 
ATOM     15  O   UNL     1      26.998  14.397  23.373  1.00  0.00    -0.206 OA
ATOM     16  N   UNL     1      31.245  15.939  22.045  1.00  0.00    -0.369 N 
ATOM     17  C   UNL     1      29.833  11.661  20.911  1.00  0.00     0.044 C 
ATOM     18  C   UNL     1      29.268  16.524  23.905  1.00  0.00     0.167 C 
ATOM     19  H   UNL     1      31.957  15.840  21.372  1.00  0.00     0.159 HD
ATOM     20  H   UNL     1      31.223  16.735  22.625  1.00  0.00     0.159 HD
ENDBRANCH   1   8
BRANCH   3  21
ATOM     21  N   UNL     1      24.385  12.695  20.700  1.00  0.00    -0.321 N 
ATOM     22  C   UNL     1      23.596  11.745  20.076  1.00  0.00     0.274 C 
ATOM     23  O   UNL     1      23.794  11.291  18.957  1.00  0.00    -0.267 OA
ATOM     24  H   UNL     1      24.039  13.049  21.552  1.00  0.00     0.170 HD
BRANCH  22  25
ATOM     25  C   UNL     1      22.455  11.242  20.880  1.00  0.00     0.128 A 
ATOM     26  N   UNL     1      22.000  10.025  20.566  1.00  0.00    -0.248 NA
ATOM     27  C   UNL     1      21.930  12.021  21.896  1.00  0.00     0.037 A 
ATOM     28  C   UNL     1      20.964   9.550  21.277  1.00  0.00     0.151 A 
ATOM     29  C   UNL     1      20.867  11.502  22.615  1.00  0.00     0.043 A 
ATOM     30  C   UNL     1      20.370  10.252  22.302  1.00  0.00     0.141 A 
ATOM     31  F   UNL     1      19.346   9.703  22.978  1.00  0.00    -0.205 F 
ENDBRANCH  22  25
ENDBRANCH   3  21
TORSDOF 3
ENDMDL
MODEL 19
REMARK VINA RESULT:    -7.155      4.667      5.981
REMARK INTER + INTRA:          -8.740
REMARK INTER:                  -8.869
REMARK INTRA:                   0.129
REMARK UNBOUND:                -0.331
REMARK SMILES CN1C(N)=N[C@](C)(c2cc(NC(=O)c3ccc(F)cn3)ccc2F)CS1(=O)=O
REMARK SMILES IDX 8 1 9 2 10 3 21 4 22 5 23 6 24 7 6 8 25 9 5 10 26 11 3 12
REMARK SMILES IDX 27 13 2 14 28 15 4 16 7 17 1 18 11 21 12 22 13 23 14 25
REMARK SMILES IDX 20 26 15 27 19 28 16 29 17 30 18 31
REMARK H PARENT 4 19 4 20 11 24
ROOT
ATOM      1  C   UNL     1      21.339  11.588  25.823  1.00  0.00     0.018 A 
ATOM      2  C   UNL     1      22.589  12.181  25.995  1.00  0.00     0.035 A 
ATOM      3  C   UNL     1      23.477  12.340  24.956  1.00  0.00     0.042 A 
ATOM      4  C   UNL     1      23.159  11.885  23.683  1.00  0.00     0.029 A 
ATOM      5  C   UNL     1      21.921  11.297  23.493  1.00  0.00     0.042 A 
ATOM      6  C   UNL     1      21.027  11.173  24.538  1.00  0.00     0.129 A 
ATOM      7  F   UNL     1      19.807  10.619  24.318  1.00  0.00    -0.207 F 
ENDROOT
BRANCH   1   8
ATOM      8  C   UNL     1      20.377  11.429  26.991  1.00  0.00     0.105 C 
ATOM      9  C   UNL     1      18.940  11.792  26.691  1.00  0.00     0.195 C 
ATOM     10  N   UNL     1      20.838  12.143  28.181  1.00  0.00    -0.240 NA
ATOM     11  S   UNL     1      18.799  13.515  26.289  1.00  0.00     0.239 S 
ATOM     12  C   UNL     1      20.641  13.416  28.331  1.00  0.00     0.205 C 
ATOM     13  O   UNL     1      17.455  13.919  26.663  1.00  0.00    -0.206 OA
ATOM     14  N   UNL     1      19.877  14.203  27.441  1.00  0.00    -0.243 N 
ATOM     15  O   UNL     1      19.407  13.814  25.030  1.00  0.00    -0.206 OA
ATOM     16  N   UNL     1      21.143  14.113  29.398  1.00  0.00    -0.369 N 
ATOM     17  C   UNL     1      20.386   9.966  27.443  1.00  0.00     0.044 C 
ATOM     18  C   UNL     1      19.766  15.671  27.557  1.00  0.00     0.167 C 
ATOM     19  H   UNL     1      21.688  13.651  30.074  1.00  0.00     0.159 HD
ATOM     20  H   UNL     1      20.958  15.076  29.488  1.00  0.00     0.159 HD
ENDBRANCH   1   8
BRANCH   3  21
ATOM     21  N   UNL     1      24.701  12.949  25.265  1.00  0.00    -0.321 N 
ATOM     22  C   UNL     1      25.617  13.518  24.398  1.00  0.00     0.274 C 
ATOM     23  O   UNL     1      25.559  13.464  23.177  1.00  0.00    -0.267 OA
ATOM     24  H   UNL     1      24.939  12.975  26.220  1.00  0.00     0.170 HD
BRANCH  22  25
ATOM     25  C   UNL     1      26.718  14.272  25.046  1.00  0.00     0.128 A 
ATOM     26  N   UNL     1      27.960  13.852  24.782  1.00  0.00    -0.248 NA
ATOM     27  C   UNL     1      26.429  15.350  25.864  1.00  0.00     0.037 A 
ATOM     28  C   UNL     1      28.973  14.516  25.361  1.00  0.00     0.151 A 
ATOM     29  C   UNL     1      27.495  16.018  26.441  1.00  0.00     0.043 A 
ATOM     30  C   UNL     1      28.787  15.596  26.193  1.00  0.00     0.141 A 
ATOM     31  F   UNL     1      29.853  16.219  26.724  1.00  0.00    -0.205 F 
ENDBRANCH  22  25
ENDBRANCH   3  21
TORSDOF 3
ENDMDL
MODEL 20
REMARK VINA RESULT:    -7.153      3.607      7.262
REMARK INTER + INTRA:          -8.738
REMARK INTER:                  -9.261
REMARK INTRA:                   0.523
REMARK UNBOUND:                -0.331
REMARK SMILES CN1C(N)=N[C@](C)(c2cc(NC(=O)c3ccc(F)cn3)ccc2F)CS1(=O)=O
REMARK SMILES IDX 8 1 9 2 10 3 21 4 22 5 23 6 24 7 6 8 25 9 5 10 26 11 3 12
REMARK SMILES IDX 27 13 2 14 28 15 4 16 7 17 1 18 11 21 12 22 13 23 14 25
REMARK SMILES IDX 20 26 15 27 19 28 16 29 17 30 18 31
REMARK H PARENT 4 19 4 20 11 24
ROOT
ATOM      1  C   UNL     1      24.526  12.366  20.035  1.00  0.00     0.018 A 
ATOM      2  C   UNL     1      23.758  12.264  21.194  1.00  0.00     0.035 A 
ATOM      3  C   UNL     1      22.461  12.721  21.261  1.00  0.00     0.042 A 
ATOM      4  C   UNL     1      21.873  13.330  20.160  1.00  0.00     0.029 A 
ATOM      5  C   UNL     1      22.619  13.437  19.000  1.00  0.00     0.042 A 
ATOM      6  C   UNL     1      23.908  12.945  18.938  1.00  0.00     0.129 A 
ATOM      7  F   UNL     1      24.609  13.036  17.778  1.00  0.00    -0.207 F 
ENDROOT
BRANCH   1   8
ATOM      8  C   UNL     1      25.955  11.848  19.992  1.00  0.00     0.105 C 
ATOM      9  C   UNL     1      26.595  11.619  21.344  1.00  0.00     0.195 C 
ATOM     10  N   UNL     1      26.819  12.689  19.164  1.00  0.00    -0.240 NA
ATOM     11  S   UNL     1      26.750  13.149  22.231  1.00  0.00     0.239 S 
ATOM     12  C   UNL     1      27.343  13.785  19.620  1.00  0.00     0.205 C 
ATOM     13  O   UNL     1      27.886  12.997  23.122  1.00  0.00    -0.206 OA
ATOM     14  N   UNL     1      27.235  14.208  20.964  1.00  0.00    -0.243 N 
ATOM     15  O   UNL     1      25.476  13.657  22.633  1.00  0.00    -0.206 OA
ATOM     16  N   UNL     1      28.080  14.626  18.830  1.00  0.00    -0.369 N 
ATOM     17  C   UNL     1      25.973  10.507  19.254  1.00  0.00     0.044 C 
ATOM     18  C   UNL     1      27.729  15.516  21.438  1.00  0.00     0.167 C 
ATOM     19  H   UNL     1      28.212  14.416  17.878  1.00  0.00     0.159 HD
ATOM     20  H   UNL     1      28.478  15.440  19.215  1.00  0.00     0.159 HD
ENDBRANCH   1   8
BRANCH   3  21
ATOM     21  N   UNL     1      21.801  12.560  22.486  1.00  0.00    -0.321 N 
ATOM     22  C   UNL     1      20.980  11.521  22.887  1.00  0.00     0.274 C 
ATOM     23  O   UNL     1      20.588  10.614  22.164  1.00  0.00    -0.267 OA
ATOM     24  H   UNL     1      21.940  13.277  23.146  1.00  0.00     0.170 HD
BRANCH  22  25
ATOM     25  C   UNL     1      20.600  11.531  24.321  1.00  0.00     0.128 A 
ATOM     26  N   UNL     1      21.055  10.516  25.062  1.00  0.00    -0.248 NA
ATOM     27  C   UNL     1      19.824  12.562  24.822  1.00  0.00     0.037 A 
ATOM     28  C   UNL     1      20.720  10.501  26.363  1.00  0.00     0.151 A 
ATOM     29  C   UNL     1      19.501  12.522  26.167  1.00  0.00     0.043 A 
ATOM     30  C   UNL     1      19.949  11.477  26.952  1.00  0.00     0.141 A 
ATOM     31  F   UNL     1      19.668  11.401  28.264  1.00  0.00    -0.205 F 
ENDBRANCH  22  25
ENDBRANCH   3  21
TORSDOF 3
ENDMDL
