MODEL 1
REMARK VINA RESULT:    -6.879      0.000      0.000
REMARK INTER + INTRA:          -7.750
REMARK INTER:                  -7.683
REMARK INTRA:                  -0.066
REMARK UNBOUND:                -0.066
REMARK SMILES O=C(N[C@H]1CN2CCC1CC2)c1cc2cccc(Cl)c2s1
REMARK SMILES IDX 12 1 13 2 14 3 20 4 18 5 17 6 16 7 15 8 21 9 19 10 2 11 3 12
REMARK SMILES IDX 1 13 4 15 9 16 5 17 8 18 10 19 6 20 7 21 11 22
REMARK H PARENT 3 14
ROOT
ATOM      1  C   UNL     1     141.515 140.488  95.835  1.00  0.00     0.093 A 
ATOM      2  C   UNL     1     140.231 140.080  95.958  1.00  0.00     0.034 A 
ATOM      3  C   UNL     1     139.300 140.892  96.688  1.00  0.00    -0.005 A 
ATOM      4  C   UNL     1     139.887 142.094  97.216  1.00  0.00     0.054 A 
ATOM      5  C   UNL     1     139.112 142.971  97.938  1.00  0.00     0.058 A 
ATOM      6  C   UNL     1     137.760 142.689  98.154  1.00  0.00     0.022 A 
ATOM      7  C   UNL     1     137.190 141.513  97.638  1.00  0.00     0.002 A 
ATOM      8  C   UNL     1     137.974 140.622  96.905  1.00  0.00     0.010 A 
ATOM      9  S   UNL     1     141.622 142.006  96.680  1.00  0.00    -0.128 S 
ATOM     10  Cl  UNL     1     139.830 144.463  98.598  1.00  0.00    -0.083 Cl
ENDROOT
BRANCH   1  11
ATOM     11  C   UNL     1     142.627 139.738  95.093  1.00  0.00     0.261 C 
ATOM     12  N   UNL     1     142.530 139.499  93.666  1.00  0.00    -0.347 N 
ATOM     13  O   UNL     1     143.571 139.348  95.692  1.00  0.00    -0.268 OA
ATOM     14  H   UNL     1     141.747 139.818  93.162  1.00  0.00     0.164 HD
BRANCH  12  15
ATOM     15  C   UNL     1     143.618 138.772  92.974  1.00  0.00     0.099 C 
ATOM     16  C   UNL     1     144.815 139.605  92.909  1.00  0.00     0.015 C 
ATOM     17  C   UNL     1     143.189 138.432  91.532  1.00  0.00     0.109 C 
ATOM     18  C   UNL     1     145.833 138.889  92.193  1.00  0.00     0.021 C 
ATOM     19  C   UNL     1     144.491 140.817  92.161  1.00  0.00     0.021 C 
ATOM     20  N   UNL     1     144.070 138.985  90.599  1.00  0.00    -0.301 NA
ATOM     21  C   UNL     1     145.351 138.527  90.819  1.00  0.00     0.085 C 
ATOM     22  C   UNL     1     144.053 140.397  90.706  1.00  0.00     0.085 C 
ENDBRANCH  12  15
ENDBRANCH   1  11
TORSDOF 2
ENDMDL
MODEL 2
REMARK VINA RESULT:    -6.039      5.842      6.992
REMARK INTER + INTRA:          -6.812
REMARK INTER:                  -6.498
REMARK INTRA:                  -0.314
REMARK UNBOUND:                -0.066
REMARK SMILES O=C(N[C@H]1CN2CCC1CC2)c1cc2cccc(Cl)c2s1
REMARK SMILES IDX 12 1 13 2 14 3 20 4 18 5 17 6 16 7 15 8 21 9 19 10 2 11 3 12
REMARK SMILES IDX 1 13 4 15 9 16 5 17 8 18 10 19 6 20 7 21 11 22
REMARK H PARENT 3 14
ROOT
ATOM      1  C   UNL     1     145.388 142.668  94.423  1.00  0.00     0.093 A 
ATOM      2  C   UNL     1     144.327 142.855  95.242  1.00  0.00     0.034 A 
ATOM      3  C   UNL     1     143.291 141.864  95.292  1.00  0.00    -0.005 A 
ATOM      4  C   UNL     1     143.534 140.744  94.422  1.00  0.00     0.054 A 
ATOM      5  C   UNL     1     142.625 139.715  94.367  1.00  0.00     0.058 A 
ATOM      6  C   UNL     1     141.471 139.762  95.155  1.00  0.00     0.022 A 
ATOM      7  C   UNL     1     141.237 140.857  96.004  1.00  0.00     0.002 A 
ATOM      8  C   UNL     1     142.158 141.904  96.062  1.00  0.00     0.010 A 
ATOM      9  S   UNL     1     145.121 141.142  93.630  1.00  0.00    -0.128 S 
ATOM     10  Cl  UNL     1     142.915 138.323  93.291  1.00  0.00    -0.083 Cl
ENDROOT
BRANCH   1  11
ATOM     11  C   UNL     1     146.570 143.629  94.254  1.00  0.00     0.261 C 
ATOM     12  N   UNL     1     147.861 143.320  94.837  1.00  0.00    -0.347 N 
ATOM     13  O   UNL     1     146.426 144.634  93.645  1.00  0.00    -0.268 OA
ATOM     14  H   UNL     1     147.989 142.488  95.348  1.00  0.00     0.164 HD
BRANCH  12  15
ATOM     15  C   UNL     1     148.987 144.265  94.659  1.00  0.00     0.099 C 
ATOM     16  C   UNL     1     150.150 143.564  94.125  1.00  0.00     0.015 C 
ATOM     17  C   UNL     1     149.377 144.880  96.018  1.00  0.00     0.109 C 
ATOM     18  C   UNL     1     151.234 144.498  94.008  1.00  0.00     0.021 C 
ATOM     19  C   UNL     1     150.537 142.525  95.076  1.00  0.00     0.021 C 
ATOM     20  N   UNL     1     150.715 144.618  96.326  1.00  0.00    -0.301 NA
ATOM     21  C   UNL     1     151.540 145.115  95.340  1.00  0.00     0.085 C 
ATOM     22  C   UNL     1     150.913 143.220  96.440  1.00  0.00     0.085 C 
ENDBRANCH  12  15
ENDBRANCH   1  11
TORSDOF 2
ENDMDL
MODEL 3
REMARK VINA RESULT:    -5.899      6.274      7.550
REMARK INTER + INTRA:          -6.655
REMARK INTER:                  -6.349
REMARK INTRA:                  -0.306
REMARK UNBOUND:                -0.066
REMARK SMILES O=C(N[C@H]1CN2CCC1CC2)c1cc2cccc(Cl)c2s1
REMARK SMILES IDX 12 1 13 2 14 3 20 4 18 5 17 6 16 7 15 8 21 9 19 10 2 11 3 12
REMARK SMILES IDX 1 13 4 15 9 16 5 17 8 18 10 19 6 20 7 21 11 22
REMARK H PARENT 3 14
ROOT
ATOM      1  C   UNL     1     145.238 142.801  94.534  1.00  0.00     0.093 A 
ATOM      2  C   UNL     1     144.132 142.811  95.313  1.00  0.00     0.034 A 
ATOM      3  C   UNL     1     143.212 141.712  95.248  1.00  0.00    -0.005 A 
ATOM      4  C   UNL     1     143.613 140.691  94.317  1.00  0.00     0.054 A 
ATOM      5  C   UNL     1     142.828 139.575  94.150  1.00  0.00     0.058 A 
ATOM      6  C   UNL     1     141.646 139.439  94.885  1.00  0.00     0.022 A 
ATOM      7  C   UNL     1     141.258 140.439  95.793  1.00  0.00     0.002 A 
ATOM      8  C   UNL     1     142.053 141.572  95.965  1.00  0.00     0.010 A 
ATOM      9  S   UNL     1     145.175 141.316  93.628  1.00  0.00    -0.128 S 
ATOM     10  Cl  UNL     1     143.314 138.305  92.998  1.00  0.00    -0.083 Cl
ENDROOT
BRANCH   1  11
ATOM     11  C   UNL     1     146.311 143.894  94.485  1.00  0.00     0.261 C 
ATOM     12  N   UNL     1     146.734 144.567  95.698  1.00  0.00    -0.347 N 
ATOM     13  O   UNL     1     146.796 144.194  93.447  1.00  0.00    -0.268 OA
ATOM     14  H   UNL     1     146.335 144.326  96.565  1.00  0.00     0.164 HD
BRANCH  12  15
ATOM     15  C   UNL     1     147.772 145.620  95.623  1.00  0.00     0.099 C 
ATOM     16  C   UNL     1     148.587 145.607  96.835  1.00  0.00     0.015 C 
ATOM     17  C   UNL     1     147.107 147.006  95.505  1.00  0.00     0.109 C 
ATOM     18  C   UNL     1     149.551 146.668  96.749  1.00  0.00     0.021 C 
ATOM     19  C   UNL     1     147.715 145.868  97.977  1.00  0.00     0.021 C 
ATOM     20  N   UNL     1     147.493 147.843  96.555  1.00  0.00    -0.301 NA
ATOM     21  C   UNL     1     148.863 147.989  96.574  1.00  0.00     0.085 C 
ATOM     22  C   UNL     1     147.064 147.291  97.787  1.00  0.00     0.085 C 
ENDBRANCH  12  15
ENDBRANCH   1  11
TORSDOF 2
ENDMDL
MODEL 4
REMARK VINA RESULT:    -5.878      6.336      9.463
REMARK INTER + INTRA:          -6.632
REMARK INTER:                  -6.347
REMARK INTRA:                  -0.284
REMARK UNBOUND:                -0.066
REMARK SMILES O=C(N[C@H]1CN2CCC1CC2)c1cc2cccc(Cl)c2s1
REMARK SMILES IDX 12 1 13 2 14 3 20 4 18 5 17 6 16 7 15 8 21 9 19 10 2 11 3 12
REMARK SMILES IDX 1 13 4 15 9 16 5 17 8 18 10 19 6 20 7 21 11 22
REMARK H PARENT 3 14
ROOT
ATOM      1  C   UNL     1     141.081 139.504  87.490  1.00  0.00     0.093 A 
ATOM      2  C   UNL     1     141.791 139.447  86.339  1.00  0.00     0.034 A 
ATOM      3  C   UNL     1     141.248 138.748  85.209  1.00  0.00    -0.005 A 
ATOM      4  C   UNL     1     139.954 138.174  85.465  1.00  0.00     0.054 A 
ATOM      5  C   UNL     1     139.310 137.476  84.472  1.00  0.00     0.058 A 
ATOM      6  C   UNL     1     139.916 137.327  83.220  1.00  0.00     0.022 A 
ATOM      7  C   UNL     1     141.181 137.888  82.975  1.00  0.00     0.002 A 
ATOM      8  C   UNL     1     141.836 138.598  83.982  1.00  0.00     0.010 A 
ATOM      9  S   UNL     1     139.605 138.631  87.190  1.00  0.00    -0.128 S 
ATOM     10  Cl  UNL     1     137.706 136.760  84.778  1.00  0.00    -0.083 Cl
ENDROOT
BRANCH   1  11
ATOM     11  C   UNL     1     141.520 140.205  88.780  1.00  0.00     0.261 C 
ATOM     12  N   UNL     1     142.618 139.680  89.569  1.00  0.00    -0.347 N 
ATOM     13  O   UNL     1     140.956 141.184  89.136  1.00  0.00    -0.268 OA
ATOM     14  H   UNL     1     143.090 138.866  89.281  1.00  0.00     0.164 HD
BRANCH  12  15
ATOM     15  C   UNL     1     143.021 140.377  90.811  1.00  0.00     0.099 C 
ATOM     16  C   UNL     1     144.447 140.179  91.055  1.00  0.00     0.015 C 
ATOM     17  C   UNL     1     142.243 139.804  92.012  1.00  0.00     0.109 C 
ATOM     18  C   UNL     1     144.795 140.827  92.288  1.00  0.00     0.021 C 
ATOM     19  C   UNL     1     144.693 138.746  91.203  1.00  0.00     0.021 C 
ATOM     20  N   UNL     1     143.111 139.297  92.982  1.00  0.00    -0.301 NA
ATOM     21  C   UNL     1     143.972 140.282  93.417  1.00  0.00     0.085 C 
ATOM     22  C   UNL     1     143.863 138.227  92.437  1.00  0.00     0.085 C 
ENDBRANCH  12  15
ENDBRANCH   1  11
TORSDOF 2
ENDMDL
MODEL 5
REMARK VINA RESULT:    -5.806      5.595      7.341
REMARK INTER + INTRA:          -6.551
REMARK INTER:                  -6.238
REMARK INTRA:                  -0.313
REMARK UNBOUND:                -0.066
REMARK SMILES O=C(N[C@H]1CN2CCC1CC2)c1cc2cccc(Cl)c2s1
REMARK SMILES IDX 12 1 13 2 14 3 20 4 18 5 17 6 16 7 15 8 21 9 19 10 2 11 3 12
REMARK SMILES IDX 1 13 4 15 9 16 5 17 8 18 10 19 6 20 7 21 11 22
REMARK H PARENT 3 14
ROOT
ATOM      1  C   UNL     1     145.264 143.024  94.773  1.00  0.00     0.093 A 
ATOM      2  C   UNL     1     145.545 142.019  93.912  1.00  0.00     0.034 A 
ATOM      3  C   UNL     1     144.619 140.932  93.771  1.00  0.00    -0.005 A 
ATOM      4  C   UNL     1     143.455 141.066  94.605  1.00  0.00     0.054 A 
ATOM      5  C   UNL     1     142.479 140.098  94.574  1.00  0.00     0.058 A 
ATOM      6  C   UNL     1     142.624 138.991  93.732  1.00  0.00     0.022 A 
ATOM      7  C   UNL     1     143.763 138.863  92.919  1.00  0.00     0.002 A 
ATOM      8  C   UNL     1     144.755 139.844  92.950  1.00  0.00     0.010 A 
ATOM      9  S   UNL     1     143.727 142.631  95.489  1.00  0.00    -0.128 S 
ATOM     10  Cl  UNL     1     141.032 140.254  95.604  1.00  0.00    -0.083 Cl
ENDROOT
BRANCH   1  11
ATOM     11  C   UNL     1     146.147 144.249  95.039  1.00  0.00     0.261 C 
ATOM     12  N   UNL     1     147.135 144.671  94.066  1.00  0.00    -0.347 N 
ATOM     13  O   UNL     1     146.021 144.853  96.050  1.00  0.00    -0.268 OA
ATOM     14  H   UNL     1     147.247 144.173  93.224  1.00  0.00     0.164 HD
BRANCH  12  15
ATOM     15  C   UNL     1     147.974 145.858  94.348  1.00  0.00     0.099 C 
ATOM     16  C   UNL     1     148.240 146.588  93.112  1.00  0.00     0.015 C 
ATOM     17  C   UNL     1     149.325 145.416  94.946  1.00  0.00     0.109 C 
ATOM     18  C   UNL     1     149.092 147.704  93.413  1.00  0.00     0.021 C 
ATOM     19  C   UNL     1     148.952 145.699  92.197  1.00  0.00     0.021 C 
ATOM     20  N   UNL     1     150.394 145.860  94.163  1.00  0.00    -0.301 NA
ATOM     21  C   UNL     1     150.367 147.232  94.048  1.00  0.00     0.085 C 
ATOM     22  C   UNL     1     150.312 145.280  92.873  1.00  0.00     0.085 C 
ENDBRANCH  12  15
ENDBRANCH   1  11
TORSDOF 2
ENDMDL
MODEL 6
REMARK VINA RESULT:    -5.725      6.110      7.651
REMARK INTER + INTRA:          -6.461
REMARK INTER:                  -6.171
REMARK INTRA:                  -0.290
REMARK UNBOUND:                -0.066
REMARK SMILES O=C(N[C@H]1CN2CCC1CC2)c1cc2cccc(Cl)c2s1
REMARK SMILES IDX 12 1 13 2 14 3 20 4 18 5 17 6 16 7 15 8 21 9 19 10 2 11 3 12
REMARK SMILES IDX 1 13 4 15 9 16 5 17 8 18 10 19 6 20 7 21 11 22
REMARK H PARENT 3 14
ROOT
ATOM      1  C   UNL     1     145.338 143.037  94.649  1.00  0.00     0.093 A 
ATOM      2  C   UNL     1     145.316 141.888  93.936  1.00  0.00     0.034 A 
ATOM      3  C   UNL     1     144.242 140.955  94.133  1.00  0.00    -0.005 A 
ATOM      4  C   UNL     1     143.283 141.393  95.111  1.00  0.00     0.054 A 
ATOM      5  C   UNL     1     142.199 140.601  95.404  1.00  0.00     0.058 A 
ATOM      6  C   UNL     1     142.034 139.376  94.749  1.00  0.00     0.022 A 
ATOM      7  C   UNL     1     142.974 138.952  93.794  1.00  0.00     0.002 A 
ATOM      8  C   UNL     1     144.076 139.754  93.496  1.00  0.00     0.010 A 
ATOM      9  S   UNL     1     143.923 143.002  95.663  1.00  0.00    -0.128 S 
ATOM     10  Cl  UNL     1     141.004 141.133  96.616  1.00  0.00    -0.083 Cl
ENDROOT
BRANCH   1  11
ATOM     11  C   UNL     1     146.410 144.129  94.557  1.00  0.00     0.261 C 
ATOM     12  N   UNL     1     147.005 144.682  95.758  1.00  0.00    -0.347 N 
ATOM     13  O   UNL     1     146.753 144.525  93.495  1.00  0.00    -0.268 OA
ATOM     14  H   UNL     1     146.723 144.360  96.645  1.00  0.00     0.164 HD
BRANCH  12  15
ATOM     15  C   UNL     1     148.038 145.736  95.641  1.00  0.00     0.099 C 
ATOM     16  C   UNL     1     149.017 145.598  96.715  1.00  0.00     0.015 C 
ATOM     17  C   UNL     1     147.386 147.127  95.760  1.00  0.00     0.109 C 
ATOM     18  C   UNL     1     149.977 146.660  96.598  1.00  0.00     0.021 C 
ATOM     19  C   UNL     1     148.322 145.743  97.991  1.00  0.00     0.021 C 
ATOM     20  N   UNL     1     147.931 147.853  96.822  1.00  0.00    -0.301 NA
ATOM     21  C   UNL     1     149.292 147.994  96.658  1.00  0.00     0.085 C 
ATOM     22  C   UNL     1     147.674 147.178  98.041  1.00  0.00     0.085 C 
ENDBRANCH  12  15
ENDBRANCH   1  11
TORSDOF 2
ENDMDL
MODEL 7
REMARK VINA RESULT:    -5.716      6.337     10.264
REMARK INTER + INTRA:          -6.451
REMARK INTER:                  -6.138
REMARK INTRA:                  -0.312
REMARK UNBOUND:                -0.066
REMARK SMILES O=C(N[C@H]1CN2CCC1CC2)c1cc2cccc(Cl)c2s1
REMARK SMILES IDX 12 1 13 2 14 3 20 4 18 5 17 6 16 7 15 8 21 9 19 10 2 11 3 12
REMARK SMILES IDX 1 13 4 15 9 16 5 17 8 18 10 19 6 20 7 21 11 22
REMARK H PARENT 3 14
ROOT
ATOM      1  C   UNL     1     149.143 137.998  91.674  1.00  0.00     0.093 A 
ATOM      2  C   UNL     1     149.841 138.650  92.633  1.00  0.00     0.034 A 
ATOM      3  C   UNL     1     151.176 138.224  92.946  1.00  0.00    -0.005 A 
ATOM      4  C   UNL     1     151.616 137.106  92.156  1.00  0.00     0.054 A 
ATOM      5  C   UNL     1     152.875 136.591  92.347  1.00  0.00     0.058 A 
ATOM      6  C   UNL     1     153.721 137.156  93.306  1.00  0.00     0.022 A 
ATOM      7  C   UNL     1     153.287 138.248  94.077  1.00  0.00     0.002 A 
ATOM      8  C   UNL     1     152.009 138.773  93.885  1.00  0.00     0.010 A 
ATOM      9  S   UNL     1     150.195 136.744  91.081  1.00  0.00    -0.128 S 
ATOM     10  Cl  UNL     1     153.430 135.204  91.373  1.00  0.00    -0.083 Cl
ENDROOT
BRANCH   1  11
ATOM     11  C   UNL     1     147.715 138.326  91.226  1.00  0.00     0.261 C 
ATOM     12  N   UNL     1     146.625 138.334  92.182  1.00  0.00    -0.347 N 
ATOM     13  O   UNL     1     147.500 138.573  90.088  1.00  0.00    -0.268 OA
ATOM     14  H   UNL     1     146.795 138.128  93.130  1.00  0.00     0.164 HD
BRANCH  12  15
ATOM     15  C   UNL     1     145.255 138.654  91.723  1.00  0.00     0.099 C 
ATOM     16  C   UNL     1     145.015 140.091  91.827  1.00  0.00     0.015 C 
ATOM     17  C   UNL     1     144.221 137.928  92.606  1.00  0.00     0.109 C 
ATOM     18  C   UNL     1     143.665 140.360  91.418  1.00  0.00     0.021 C 
ATOM     19  C   UNL     1     145.158 140.479  93.228  1.00  0.00     0.021 C 
ATOM     20  N   UNL     1     143.350 138.835  93.216  1.00  0.00    -0.301 NA
ATOM     21  C   UNL     1     142.697 139.587  92.264  1.00  0.00     0.085 C 
ATOM     22  C   UNL     1     144.082 139.695  94.071  1.00  0.00     0.085 C 
ENDBRANCH  12  15
ENDBRANCH   1  11
TORSDOF 2
ENDMDL
MODEL 8
REMARK VINA RESULT:    -5.672      5.939      7.193
REMARK INTER + INTRA:          -6.401
REMARK INTER:                  -6.117
REMARK INTRA:                  -0.285
REMARK UNBOUND:                -0.066
REMARK SMILES O=C(N[C@H]1CN2CCC1CC2)c1cc2cccc(Cl)c2s1
REMARK SMILES IDX 12 1 13 2 14 3 20 4 18 5 17 6 16 7 15 8 21 9 19 10 2 11 3 12
REMARK SMILES IDX 1 13 4 15 9 16 5 17 8 18 10 19 6 20 7 21 11 22
REMARK H PARENT 3 14
ROOT
ATOM      1  C   UNL     1     145.246 143.197  94.775  1.00  0.00     0.093 A 
ATOM      2  C   UNL     1     144.065 143.027  95.412  1.00  0.00     0.034 A 
ATOM      3  C   UNL     1     143.332 141.807  95.227  1.00  0.00    -0.005 A 
ATOM      4  C   UNL     1     143.989 140.879  94.345  1.00  0.00     0.054 A 
ATOM      5  C   UNL     1     143.403 139.666  94.075  1.00  0.00     0.058 A 
ATOM      6  C   UNL     1     142.175 139.340  94.658  1.00  0.00     0.022 A 
ATOM      7  C   UNL     1     141.536 140.249  95.518  1.00  0.00     0.002 A 
ATOM      8  C   UNL     1     142.128 141.482  95.794  1.00  0.00     0.010 A 
ATOM      9  S   UNL     1     145.513 141.742  93.859  1.00  0.00    -0.128 S 
ATOM     10  Cl  UNL     1     144.208 138.508  92.983  1.00  0.00    -0.083 Cl
ENDROOT
BRANCH   1  11
ATOM     11  C   UNL     1     146.144 144.436  94.867  1.00  0.00     0.261 C 
ATOM     12  N   UNL     1     147.200 144.655  93.897  1.00  0.00    -0.347 N 
ATOM     13  O   UNL     1     145.974 145.220  95.739  1.00  0.00    -0.268 OA
ATOM     14  H   UNL     1     147.349 144.008  93.171  1.00  0.00     0.164 HD
BRANCH  12  15
ATOM     15  C   UNL     1     148.052 145.861  94.009  1.00  0.00     0.099 C 
ATOM     16  C   UNL     1     148.463 146.307  92.681  1.00  0.00     0.015 C 
ATOM     17  C   UNL     1     149.321 145.534  94.820  1.00  0.00     0.109 C 
ATOM     18  C   UNL     1     149.324 147.448  92.827  1.00  0.00     0.021 C 
ATOM     19  C   UNL     1     149.225 145.233  92.050  1.00  0.00     0.021 C 
ATOM     20  N   UNL     1     150.477 145.783  94.075  1.00  0.00    -0.301 NA
ATOM     21  C   UNL     1     150.513 147.101  93.673  1.00  0.00     0.085 C 
ATOM     22  C   UNL     1     150.498 144.945  92.934  1.00  0.00     0.085 C 
ENDBRANCH  12  15
ENDBRANCH   1  11
TORSDOF 2
ENDMDL
MODEL 9
REMARK VINA RESULT:    -5.664      3.892      5.666
REMARK INTER + INTRA:          -6.392
REMARK INTER:                  -6.147
REMARK INTRA:                  -0.245
REMARK UNBOUND:                -0.066
REMARK SMILES O=C(N[C@H]1CN2CCC1CC2)c1cc2cccc(Cl)c2s1
REMARK SMILES IDX 12 1 13 2 14 3 20 4 18 5 17 6 16 7 15 8 21 9 19 10 2 11 3 12
REMARK SMILES IDX 1 13 4 15 9 16 5 17 8 18 10 19 6 20 7 21 11 22
REMARK H PARENT 3 14
ROOT
ATOM      1  C   UNL     1     145.216 139.476  92.893  1.00  0.00     0.093 A 
ATOM      2  C   UNL     1     145.473 140.681  93.453  1.00  0.00     0.034 A 
ATOM      3  C   UNL     1     144.489 141.288  94.303  1.00  0.00    -0.005 A 
ATOM      4  C   UNL     1     143.301 140.492  94.456  1.00  0.00     0.054 A 
ATOM      5  C   UNL     1     142.272 140.947  95.244  1.00  0.00     0.058 A 
ATOM      6  C   UNL     1     142.385 142.181  95.893  1.00  0.00     0.022 A 
ATOM      7  C   UNL     1     143.547 142.957  95.741  1.00  0.00     0.002 A 
ATOM      8  C   UNL     1     144.594 142.496  94.941  1.00  0.00     0.010 A 
ATOM      9  S   UNL     1     143.630 139.018  93.443  1.00  0.00    -0.128 S 
ATOM     10  Cl  UNL     1     140.795 139.969  95.439  1.00  0.00    -0.083 Cl
ENDROOT
BRANCH   1  11
ATOM     11  C   UNL     1     146.157 138.700  91.965  1.00  0.00     0.261 C 
ATOM     12  N   UNL     1     147.528 138.435  92.358  1.00  0.00    -0.347 N 
ATOM     13  O   UNL     1     145.761 138.317  90.917  1.00  0.00    -0.268 OA
ATOM     14  H   UNL     1     147.865 138.753  93.226  1.00  0.00     0.164 HD
BRANCH  12  15
ATOM     15  C   UNL     1     148.416 137.683  91.443  1.00  0.00     0.099 C 
ATOM     16  C   UNL     1     149.498 137.058  92.197  1.00  0.00     0.015 C 
ATOM     17  C   UNL     1     149.041 138.643  90.411  1.00  0.00     0.109 C 
ATOM     18  C   UNL     1     150.364 136.377  91.276  1.00  0.00     0.021 C 
ATOM     19  C   UNL     1     150.265 138.110  92.859  1.00  0.00     0.021 C 
ATOM     20  N   UNL     1     150.436 138.615  90.474  1.00  0.00    -0.301 NA
ATOM     21  C   UNL     1     150.900 137.336  90.255  1.00  0.00     0.085 C 
ATOM     22  C   UNL     1     150.864 139.056  91.750  1.00  0.00     0.085 C 
ENDBRANCH  12  15
ENDBRANCH   1  11
TORSDOF 2
ENDMDL
MODEL 10
REMARK VINA RESULT:    -5.513      5.030      7.447
REMARK INTER + INTRA:          -6.224
REMARK INTER:                  -5.903
REMARK INTRA:                  -0.321
REMARK UNBOUND:                -0.066
REMARK SMILES O=C(N[C@H]1CN2CCC1CC2)c1cc2cccc(Cl)c2s1
REMARK SMILES IDX 12 1 13 2 14 3 20 4 18 5 17 6 16 7 15 8 21 9 19 10 2 11 3 12
REMARK SMILES IDX 1 13 4 15 9 16 5 17 8 18 10 19 6 20 7 21 11 22
REMARK H PARENT 3 14
ROOT
ATOM      1  C   UNL     1     146.508 138.625  91.489  1.00  0.00     0.093 A 
ATOM      2  C   UNL     1     145.706 139.005  90.467  1.00  0.00     0.034 A 
ATOM      3  C   UNL     1     144.366 139.436  90.745  1.00  0.00    -0.005 A 
ATOM      4  C   UNL     1     144.039 139.408  92.145  1.00  0.00     0.054 A 
ATOM      5  C   UNL     1     142.788 139.797  92.561  1.00  0.00     0.058 A 
ATOM      6  C   UNL     1     141.842 140.217  91.621  1.00  0.00     0.022 A 
ATOM      7  C   UNL     1     142.165 140.242  90.254  1.00  0.00     0.002 A 
ATOM      8  C   UNL     1     143.434 139.848  89.829  1.00  0.00     0.010 A 
ATOM      9  S   UNL     1     145.560 138.805  92.937  1.00  0.00    -0.128 S 
ATOM     10  Cl  UNL     1     142.372 139.765  94.294  1.00  0.00    -0.083 Cl
ENDROOT
BRANCH   1  11
ATOM     11  C   UNL     1     147.956 138.139  91.359  1.00  0.00     0.261 C 
ATOM     12  N   UNL     1     148.658 138.243  90.094  1.00  0.00    -0.347 N 
ATOM     13  O   UNL     1     148.504 137.672  92.299  1.00  0.00    -0.268 OA
ATOM     14  H   UNL     1     148.209 138.628  89.308  1.00  0.00     0.164 HD
BRANCH  12  15
ATOM     15  C   UNL     1     150.057 137.766  89.996  1.00  0.00     0.099 C 
ATOM     16  C   UNL     1     150.833 138.664  89.147  1.00  0.00     0.015 C 
ATOM     17  C   UNL     1     150.089 136.359  89.366  1.00  0.00     0.109 C 
ATOM     18  C   UNL     1     152.169 138.148  89.036  1.00  0.00     0.021 C 
ATOM     19  C   UNL     1     150.231 138.673  87.816  1.00  0.00     0.021 C 
ATOM     20  N   UNL     1     150.862 136.344  88.202  1.00  0.00    -0.301 NA
ATOM     21  C   UNL     1     152.148 136.757  88.476  1.00  0.00     0.085 C 
ATOM     22  C   UNL     1     150.289 137.208  87.238  1.00  0.00     0.085 C 
ENDBRANCH  12  15
ENDBRANCH   1  11
TORSDOF 2
ENDMDL
MODEL 11
REMARK VINA RESULT:    -5.494     10.806     11.823
REMARK INTER + INTRA:          -6.202
REMARK INTER:                  -5.957
REMARK INTRA:                  -0.245
REMARK UNBOUND:                -0.066
REMARK SMILES O=C(N[C@H]1CN2CCC1CC2)c1cc2cccc(Cl)c2s1
REMARK SMILES IDX 12 1 13 2 14 3 20 4 18 5 17 6 16 7 15 8 21 9 19 10 2 11 3 12
REMARK SMILES IDX 1 13 4 15 9 16 5 17 8 18 10 19 6 20 7 21 11 22
REMARK H PARENT 3 14
ROOT
ATOM      1  C   UNL     1     151.239 136.710  89.688  1.00  0.00     0.093 A 
ATOM      2  C   UNL     1     152.231 136.188  90.446  1.00  0.00     0.034 A 
ATOM      3  C   UNL     1     152.496 136.743  91.742  1.00  0.00    -0.005 A 
ATOM      4  C   UNL     1     151.624 137.835  92.081  1.00  0.00     0.054 A 
ATOM      5  C   UNL     1     151.761 138.465  93.295  1.00  0.00     0.058 A 
ATOM      6  C   UNL     1     152.745 138.041  94.192  1.00  0.00     0.022 A 
ATOM      7  C   UNL     1     153.596 136.973  93.857  1.00  0.00     0.002 A 
ATOM      8  C   UNL     1     153.459 136.333  92.625  1.00  0.00     0.010 A 
ATOM      9  S   UNL     1     150.546 138.002  90.627  1.00  0.00    -0.128 S 
ATOM     10  Cl  UNL     1     150.686 139.821  93.724  1.00  0.00    -0.083 Cl
ENDROOT
BRANCH   1  11
ATOM     11  C   UNL     1     150.834 136.234  88.288  1.00  0.00     0.261 C 
ATOM     12  N   UNL     1     149.525 135.654  88.057  1.00  0.00    -0.347 N 
ATOM     13  O   UNL     1     151.599 136.339  87.390  1.00  0.00    -0.268 OA
ATOM     14  H   UNL     1     148.885 135.562  88.798  1.00  0.00     0.164 HD
BRANCH  12  15
ATOM     15  C   UNL     1     149.160 135.202  86.695  1.00  0.00     0.099 C 
ATOM     16  C   UNL     1     148.624 136.320  85.924  1.00  0.00     0.015 C 
ATOM     17  C   UNL     1     148.076 134.110  86.777  1.00  0.00     0.109 C 
ATOM     18  C   UNL     1     148.238 135.838  84.627  1.00  0.00     0.021 C 
ATOM     19  C   UNL     1     147.431 136.818  86.605  1.00  0.00     0.021 C 
ATOM     20  N   UNL     1     146.925 134.485  86.078  1.00  0.00    -0.301 NA
ATOM     21  C   UNL     1     147.228 134.737  84.757  1.00  0.00     0.085 C 
ATOM     22  C   UNL     1     146.372 135.651  86.661  1.00  0.00     0.085 C 
ENDBRANCH  12  15
ENDBRANCH   1  11
TORSDOF 2
ENDMDL
MODEL 12
REMARK VINA RESULT:    -5.369      5.788      8.181
REMARK INTER + INTRA:          -6.063
REMARK INTER:                  -5.734
REMARK INTRA:                  -0.329
REMARK UNBOUND:                -0.066
REMARK SMILES O=C(N[C@H]1CN2CCC1CC2)c1cc2cccc(Cl)c2s1
REMARK SMILES IDX 12 1 13 2 14 3 20 4 18 5 17 6 16 7 15 8 21 9 19 10 2 11 3 12
REMARK SMILES IDX 1 13 4 15 9 16 5 17 8 18 10 19 6 20 7 21 11 22
REMARK H PARENT 3 14
ROOT
ATOM      1  C   UNL     1     141.553 140.110  89.117  1.00  0.00     0.093 A 
ATOM      2  C   UNL     1     142.861 139.783  89.224  1.00  0.00     0.034 A 
ATOM      3  C   UNL     1     143.473 139.736  90.521  1.00  0.00    -0.005 A 
ATOM      4  C   UNL     1     142.564 140.056  91.589  1.00  0.00     0.054 A 
ATOM      5  C   UNL     1     143.011 140.050  92.889  1.00  0.00     0.058 A 
ATOM      6  C   UNL     1     144.344 139.732  93.165  1.00  0.00     0.022 A 
ATOM      7  C   UNL     1     145.229 139.421  92.119  1.00  0.00     0.002 A 
ATOM      8  C   UNL     1     144.778 139.427  90.799  1.00  0.00     0.010 A 
ATOM      9  S   UNL     1     140.991 140.388  90.740  1.00  0.00    -0.128 S 
ATOM     10  Cl  UNL     1     141.893 140.446  94.220  1.00  0.00    -0.083 Cl
ENDROOT
BRANCH   1  11
ATOM     11  C   UNL     1     140.757 140.205  87.810  1.00  0.00     0.261 C 
ATOM     12  N   UNL     1     141.106 139.379  86.671  1.00  0.00    -0.347 N 
ATOM     13  O   UNL     1     139.850 140.964  87.731  1.00  0.00    -0.268 OA
ATOM     14  H   UNL     1     141.860 138.748  86.728  1.00  0.00     0.164 HD
BRANCH  12  15
ATOM     15  C   UNL     1     140.321 139.492  85.421  1.00  0.00     0.099 C 
ATOM     16  C   UNL     1     139.581 138.256  85.182  1.00  0.00     0.015 C 
ATOM     17  C   UNL     1     141.266 139.725  84.226  1.00  0.00     0.109 C 
ATOM     18  C   UNL     1     138.869 138.382  83.942  1.00  0.00     0.021 C 
ATOM     19  C   UNL     1     140.542 137.163  85.053  1.00  0.00     0.021 C 
ATOM     20  N   UNL     1     141.123 138.723  83.264  1.00  0.00    -0.301 NA
ATOM     21  C   UNL     1     139.820 138.668  82.818  1.00  0.00     0.085 C 
ATOM     22  C   UNL     1     141.478 137.471  83.823  1.00  0.00     0.085 C 
ENDBRANCH  12  15
ENDBRANCH   1  11
TORSDOF 2
ENDMDL
MODEL 13
REMARK VINA RESULT:    -5.367      6.324     10.931
REMARK INTER + INTRA:          -6.061
REMARK INTER:                  -5.749
REMARK INTRA:                  -0.312
REMARK UNBOUND:                -0.066
REMARK SMILES O=C(N[C@H]1CN2CCC1CC2)c1cc2cccc(Cl)c2s1
REMARK SMILES IDX 12 1 13 2 14 3 20 4 18 5 17 6 16 7 15 8 21 9 19 10 2 11 3 12
REMARK SMILES IDX 1 13 4 15 9 16 5 17 8 18 10 19 6 20 7 21 11 22
REMARK H PARENT 3 14
ROOT
ATOM      1  C   UNL     1     149.128 138.410  90.137  1.00  0.00     0.093 A 
ATOM      2  C   UNL     1     149.022 138.164  88.811  1.00  0.00     0.034 A 
ATOM      3  C   UNL     1     150.147 138.413  87.955  1.00  0.00    -0.005 A 
ATOM      4  C   UNL     1     151.296 138.913  88.660  1.00  0.00     0.054 A 
ATOM      5  C   UNL     1     152.450 139.195  87.967  1.00  0.00     0.058 A 
ATOM      6  C   UNL     1     152.499 138.995  86.585  1.00  0.00     0.022 A 
ATOM      7  C   UNL     1     151.373 138.506  85.900  1.00  0.00     0.002 A 
ATOM      8  C   UNL     1     150.201 138.219  86.600  1.00  0.00     0.010 A 
ATOM      9  S   UNL     1     150.746 138.998  90.390  1.00  0.00    -0.128 S 
ATOM     10  Cl  UNL     1     153.880 139.817  88.831  1.00  0.00    -0.083 Cl
ENDROOT
BRANCH   1  11
ATOM     11  C   UNL     1     148.023 138.200  91.179  1.00  0.00     0.261 C 
ATOM     12  N   UNL     1     146.662 138.619  90.906  1.00  0.00    -0.347 N 
ATOM     13  O   UNL     1     148.286 137.693  92.217  1.00  0.00    -0.268 OA
ATOM     14  H   UNL     1     146.437 139.042  90.047  1.00  0.00     0.164 HD
BRANCH  12  15
ATOM     15  C   UNL     1     145.615 138.404  91.930  1.00  0.00     0.099 C 
ATOM     16  C   UNL     1     144.352 138.051  91.287  1.00  0.00     0.015 C 
ATOM     17  C   UNL     1     145.397 139.698  92.738  1.00  0.00     0.109 C 
ATOM     18  C   UNL     1     143.349 137.895  92.303  1.00  0.00     0.021 C 
ATOM     19  C   UNL     1     143.957 139.153  90.414  1.00  0.00     0.021 C 
ATOM     20  N   UNL     1     144.073 140.135  92.649  1.00  0.00    -0.301 NA
ATOM     21  C   UNL     1     143.214 139.157  93.103  1.00  0.00     0.085 C 
ATOM     22  C   UNL     1     143.762 140.441  91.302  1.00  0.00     0.085 C 
ENDBRANCH  12  15
ENDBRANCH   1  11
TORSDOF 2
ENDMDL
MODEL 14
REMARK VINA RESULT:    -5.316      6.088      7.225
REMARK INTER + INTRA:          -6.004
REMARK INTER:                  -5.715
REMARK INTRA:                  -0.289
REMARK UNBOUND:                -0.066
REMARK SMILES O=C(N[C@H]1CN2CCC1CC2)c1cc2cccc(Cl)c2s1
REMARK SMILES IDX 12 1 13 2 14 3 20 4 18 5 17 6 16 7 15 8 21 9 19 10 2 11 3 12
REMARK SMILES IDX 1 13 4 15 9 16 5 17 8 18 10 19 6 20 7 21 11 22
REMARK H PARENT 3 14
ROOT
ATOM      1  C   UNL     1     145.744 142.840  94.631  1.00  0.00     0.093 A 
ATOM      2  C   UNL     1     144.691 143.220  95.390  1.00  0.00     0.034 A 
ATOM      3  C   UNL     1     143.523 142.388  95.443  1.00  0.00    -0.005 A 
ATOM      4  C   UNL     1     143.636 141.199  94.642  1.00  0.00     0.054 A 
ATOM      5  C   UNL     1     142.592 140.306  94.596  1.00  0.00     0.058 A 
ATOM      6  C   UNL     1     141.428 140.558  95.329  1.00  0.00     0.022 A 
ATOM      7  C   UNL     1     141.321 141.721  96.110  1.00  0.00     0.002 A 
ATOM      8  C   UNL     1     142.379 142.630  96.157  1.00  0.00     0.010 A 
ATOM      9  S   UNL     1     145.292 141.325  93.903  1.00  0.00    -0.128 S 
ATOM     10  Cl  UNL     1     142.722 138.830  93.605  1.00  0.00    -0.083 Cl
ENDROOT
BRANCH   1  11
ATOM     11  C   UNL     1     147.057 143.615  94.468  1.00  0.00     0.261 C 
ATOM     12  N   UNL     1     147.065 144.936  93.871  1.00  0.00    -0.347 N 
ATOM     13  O   UNL     1     148.074 143.127  94.830  1.00  0.00    -0.268 OA
ATOM     14  H   UNL     1     146.224 145.348  93.566  1.00  0.00     0.164 HD
BRANCH  12  15
ATOM     15  C   UNL     1     148.347 145.662  93.725  1.00  0.00     0.099 C 
ATOM     16  C   UNL     1     148.633 146.420  94.940  1.00  0.00     0.015 C 
ATOM     17  C   UNL     1     148.258 146.654  92.549  1.00  0.00     0.109 C 
ATOM     18  C   UNL     1     149.857 147.147  94.748  1.00  0.00     0.021 C 
ATOM     19  C   UNL     1     147.554 147.382  95.147  1.00  0.00     0.021 C 
ATOM     20  N   UNL     1     148.503 147.964  92.971  1.00  0.00    -0.301 NA
ATOM     21  C   UNL     1     149.746 148.054  93.558  1.00  0.00     0.085 C 
ATOM     22  C   UNL     1     147.515 148.355  93.908  1.00  0.00     0.085 C 
ENDBRANCH  12  15
ENDBRANCH   1  11
TORSDOF 2
ENDMDL
MODEL 15
REMARK VINA RESULT:    -5.302      5.651      6.601
REMARK INTER + INTRA:          -5.989
REMARK INTER:                  -5.711
REMARK INTRA:                  -0.277
REMARK UNBOUND:                -0.066
REMARK SMILES O=C(N[C@H]1CN2CCC1CC2)c1cc2cccc(Cl)c2s1
REMARK SMILES IDX 12 1 13 2 14 3 20 4 18 5 17 6 16 7 15 8 21 9 19 10 2 11 3 12
REMARK SMILES IDX 1 13 4 15 9 16 5 17 8 18 10 19 6 20 7 21 11 22
REMARK H PARENT 3 14
ROOT
ATOM      1  C   UNL     1     143.680 143.663  97.173  1.00  0.00     0.093 A 
ATOM      2  C   UNL     1     143.688 142.658  96.266  1.00  0.00     0.034 A 
ATOM      3  C   UNL     1     142.504 141.869  96.077  1.00  0.00    -0.005 A 
ATOM      4  C   UNL     1     141.411 142.275  96.918  1.00  0.00     0.054 A 
ATOM      5  C   UNL     1     140.211 141.609  96.844  1.00  0.00     0.058 A 
ATOM      6  C   UNL     1     140.060 140.542  95.953  1.00  0.00     0.022 A 
ATOM      7  C   UNL     1     141.132 140.148  95.133  1.00  0.00     0.002 A 
ATOM      8  C   UNL     1     142.351 140.822  95.206  1.00  0.00     0.010 A 
ATOM      9  S   UNL     1     142.086 143.667  97.873  1.00  0.00    -0.128 S 
ATOM     10  Cl  UNL     1     138.849 142.103  97.883  1.00  0.00    -0.083 Cl
ENDROOT
BRANCH   1  11
ATOM     11  C   UNL     1     144.857 144.591  97.493  1.00  0.00     0.261 C 
ATOM     12  N   UNL     1     146.032 144.612  96.643  1.00  0.00    -0.347 N 
ATOM     13  O   UNL     1     144.806 145.293  98.445  1.00  0.00    -0.268 OA
ATOM     14  H   UNL     1     146.082 144.029  95.852  1.00  0.00     0.164 HD
BRANCH  12  15
ATOM     15  C   UNL     1     147.155 145.518  96.976  1.00  0.00     0.099 C 
ATOM     16  C   UNL     1     146.933 146.830  96.376  1.00  0.00     0.015 C 
ATOM     17  C   UNL     1     148.473 144.949  96.415  1.00  0.00     0.109 C 
ATOM     18  C   UNL     1     148.060 147.668  96.678  1.00  0.00     0.021 C 
ATOM     19  C   UNL     1     146.857 146.666  94.926  1.00  0.00     0.021 C 
ATOM     20  N   UNL     1     149.079 145.848  95.534  1.00  0.00    -0.301 NA
ATOM     21  C   UNL     1     149.326 147.047  96.168  1.00  0.00     0.085 C 
ATOM     22  C   UNL     1     148.228 146.074  94.424  1.00  0.00     0.085 C 
ENDBRANCH  12  15
ENDBRANCH   1  11
TORSDOF 2
ENDMDL
MODEL 16
REMARK VINA RESULT:    -5.229      5.191      7.439
REMARK INTER + INTRA:          -5.907
REMARK INTER:                  -5.593
REMARK INTRA:                  -0.314
REMARK UNBOUND:                -0.066
REMARK SMILES O=C(N[C@H]1CN2CCC1CC2)c1cc2cccc(Cl)c2s1
REMARK SMILES IDX 12 1 13 2 14 3 20 4 18 5 17 6 16 7 15 8 21 9 19 10 2 11 3 12
REMARK SMILES IDX 1 13 4 15 9 16 5 17 8 18 10 19 6 20 7 21 11 22
REMARK H PARENT 3 14
ROOT
ATOM      1  C   UNL     1     146.398 138.717  91.202  1.00  0.00     0.093 A 
ATOM      2  C   UNL     1     146.116 138.887  92.515  1.00  0.00     0.034 A 
ATOM      3  C   UNL     1     144.803 139.316  92.905  1.00  0.00    -0.005 A 
ATOM      4  C   UNL     1     143.916 139.514  91.790  1.00  0.00     0.054 A 
ATOM      5  C   UNL     1     142.623 139.924  92.013  1.00  0.00     0.058 A 
ATOM      6  C   UNL     1     142.178 140.144  93.320  1.00  0.00     0.022 A 
ATOM      7  C   UNL     1     143.048 139.950  94.406  1.00  0.00     0.002 A 
ATOM      8  C   UNL     1     144.361 139.535  94.183  1.00  0.00     0.010 A 
ATOM      9  S   UNL     1     144.936 139.108  90.341  1.00  0.00    -0.128 S 
ATOM     10  Cl  UNL     1     141.515 140.174  90.638  1.00  0.00    -0.083 Cl
ENDROOT
BRANCH   1  11
ATOM     11  C   UNL     1     147.745 138.269  90.626  1.00  0.00     0.261 C 
ATOM     12  N   UNL     1     148.745 137.657  91.479  1.00  0.00    -0.347 N 
ATOM     13  O   UNL     1     147.971 138.427  89.474  1.00  0.00    -0.268 OA
ATOM     14  H   UNL     1     148.566 137.524  92.437  1.00  0.00     0.164 HD
BRANCH  12  15
ATOM     15  C   UNL     1     150.039 137.233  90.896  1.00  0.00     0.099 C 
ATOM     16  C   UNL     1     150.509 136.018  91.554  1.00  0.00     0.015 C 
ATOM     17  C   UNL     1     151.096 138.335  91.106  1.00  0.00     0.109 C 
ATOM     18  C   UNL     1     151.785 135.661  90.998  1.00  0.00     0.021 C 
ATOM     19  C   UNL     1     150.690 136.305  92.974  1.00  0.00     0.021 C 
ATOM     20  N   UNL     1     152.192 137.853  91.826  1.00  0.00    -0.301 NA
ATOM     21  C   UNL     1     152.764 136.784  91.171  1.00  0.00     0.085 C 
ATOM     22  C   UNL     1     151.773 137.442  93.115  1.00  0.00     0.085 C 
ENDBRANCH  12  15
ENDBRANCH   1  11
TORSDOF 2
ENDMDL
MODEL 17
REMARK VINA RESULT:    -5.211      5.386      6.279
REMARK INTER + INTRA:          -5.887
REMARK INTER:                  -5.582
REMARK INTRA:                  -0.305
REMARK UNBOUND:                -0.066
REMARK SMILES O=C(N[C@H]1CN2CCC1CC2)c1cc2cccc(Cl)c2s1
REMARK SMILES IDX 12 1 13 2 14 3 20 4 18 5 17 6 16 7 15 8 21 9 19 10 2 11 3 12
REMARK SMILES IDX 1 13 4 15 9 16 5 17 8 18 10 19 6 20 7 21 11 22
REMARK H PARENT 3 14
ROOT
ATOM      1  C   UNL     1     144.103 143.128  96.199  1.00  0.00     0.093 A 
ATOM      2  C   UNL     1     142.839 143.259  96.664  1.00  0.00     0.034 A 
ATOM      3  C   UNL     1     141.871 142.239  96.375  1.00  0.00    -0.005 A 
ATOM      4  C   UNL     1     142.405 141.156  95.593  1.00  0.00     0.054 A 
ATOM      5  C   UNL     1     141.592 140.106  95.241  1.00  0.00     0.058 A 
ATOM      6  C   UNL     1     140.253 140.095  95.646  1.00  0.00     0.022 A 
ATOM      7  C   UNL     1     139.736 141.155  96.409  1.00  0.00     0.002 A 
ATOM      8  C   UNL     1     140.559 142.223  96.768  1.00  0.00     0.010 A 
ATOM      9  S   UNL     1     144.141 141.623  95.326  1.00  0.00    -0.128 S 
ATOM     10  Cl  UNL     1     142.242 138.759  94.270  1.00  0.00    -0.083 Cl
ENDROOT
BRANCH   1  11
ATOM     11  C   UNL     1     145.246 144.125  96.418  1.00  0.00     0.261 C 
ATOM     12  N   UNL     1     146.262 144.317  95.401  1.00  0.00    -0.347 N 
ATOM     13  O   UNL     1     145.301 144.742  97.428  1.00  0.00    -0.268 OA
ATOM     14  H   UNL     1     146.225 143.807  94.560  1.00  0.00     0.164 HD
BRANCH  12  15
ATOM     15  C   UNL     1     147.355 145.287  95.638  1.00  0.00     0.099 C 
ATOM     16  C   UNL     1     147.508 146.161  94.479  1.00  0.00     0.015 C 
ATOM     17  C   UNL     1     148.685 144.537  95.854  1.00  0.00     0.109 C 
ATOM     18  C   UNL     1     148.605 147.057  94.723  1.00  0.00     0.021 C 
ATOM     19  C   UNL     1     147.837 145.335  93.320  1.00  0.00     0.021 C 
ATOM     20  N   UNL     1     149.644 144.926  94.915  1.00  0.00    -0.301 NA
ATOM     21  C   UNL     1     149.863 146.284  94.988  1.00  0.00     0.085 C 
ATOM     22  C   UNL     1     149.197 144.593  93.613  1.00  0.00     0.085 C 
ENDBRANCH  12  15
ENDBRANCH   1  11
TORSDOF 2
ENDMDL
MODEL 18
REMARK VINA RESULT:    -5.062     10.646     11.238
REMARK INTER + INTRA:          -5.720
REMARK INTER:                  -5.407
REMARK INTRA:                  -0.313
REMARK UNBOUND:                -0.066
REMARK SMILES O=C(N[C@H]1CN2CCC1CC2)c1cc2cccc(Cl)c2s1
REMARK SMILES IDX 12 1 13 2 14 3 20 4 18 5 17 6 16 7 15 8 21 9 19 10 2 11 3 12
REMARK SMILES IDX 1 13 4 15 9 16 5 17 8 18 10 19 6 20 7 21 11 22
REMARK H PARENT 3 14
ROOT
ATOM      1  C   UNL     1     150.675 137.171  90.762  1.00  0.00     0.093 A 
ATOM      2  C   UNL     1     151.251 136.738  91.907  1.00  0.00     0.034 A 
ATOM      3  C   UNL     1     151.739 137.696  92.858  1.00  0.00    -0.005 A 
ATOM      4  C   UNL     1     151.538 139.059  92.445  1.00  0.00     0.054 A 
ATOM      5  C   UNL     1     151.955 140.085  93.258  1.00  0.00     0.058 A 
ATOM      6  C   UNL     1     152.572 139.799  94.479  1.00  0.00     0.022 A 
ATOM      7  C   UNL     1     152.767 138.466  94.879  1.00  0.00     0.002 A 
ATOM      8  C   UNL     1     152.345 137.422  94.055  1.00  0.00     0.010 A 
ATOM      9  S   UNL     1     150.719 138.910  90.828  1.00  0.00    -0.128 S 
ATOM     10  Cl  UNL     1     151.712 141.779  92.755  1.00  0.00    -0.083 Cl
ENDROOT
BRANCH   1  11
ATOM     11  C   UNL     1     150.108 136.281  89.650  1.00  0.00     0.261 C 
ATOM     12  N   UNL     1     149.606 136.864  88.421  1.00  0.00    -0.347 N 
ATOM     13  O   UNL     1     150.078 135.106  89.799  1.00  0.00    -0.268 OA
ATOM     14  H   UNL     1     149.626 137.840  88.291  1.00  0.00     0.164 HD
BRANCH  12  15
ATOM     15  C   UNL     1     149.064 135.981  87.364  1.00  0.00     0.099 C 
ATOM     16  C   UNL     1     150.038 135.835  86.286  1.00  0.00     0.015 C 
ATOM     17  C   UNL     1     147.780 136.596  86.773  1.00  0.00     0.109 C 
ATOM     18  C   UNL     1     149.463 135.012  85.259  1.00  0.00     0.021 C 
ATOM     19  C   UNL     1     150.302 137.157  85.723  1.00  0.00     0.021 C 
ATOM     20  N   UNL     1     147.905 136.804  85.397  1.00  0.00    -0.301 NA
ATOM     21  C   UNL     1     148.186 135.617  84.756  1.00  0.00     0.085 C 
ATOM     22  C   UNL     1     148.950 137.728  85.148  1.00  0.00     0.085 C 
ENDBRANCH  12  15
ENDBRANCH   1  11
TORSDOF 2
ENDMDL
MODEL 19
REMARK VINA RESULT:    -4.971     10.852     11.344
REMARK INTER + INTRA:          -5.618
REMARK INTER:                  -5.281
REMARK INTRA:                  -0.337
REMARK UNBOUND:                -0.066
REMARK SMILES O=C(N[C@H]1CN2CCC1CC2)c1cc2cccc(Cl)c2s1
REMARK SMILES IDX 12 1 13 2 14 3 20 4 18 5 17 6 16 7 15 8 21 9 19 10 2 11 3 12
REMARK SMILES IDX 1 13 4 15 9 16 5 17 8 18 10 19 6 20 7 21 11 22
REMARK H PARENT 3 14
ROOT
ATOM      1  C   UNL     1     150.730 137.180  90.754  1.00  0.00     0.093 A 
ATOM      2  C   UNL     1     150.913 138.518  90.664  1.00  0.00     0.034 A 
ATOM      3  C   UNL     1     151.485 139.228  91.773  1.00  0.00    -0.005 A 
ATOM      4  C   UNL     1     151.806 138.377  92.887  1.00  0.00     0.054 A 
ATOM      5  C   UNL     1     152.363 138.920  94.020  1.00  0.00     0.058 A 
ATOM      6  C   UNL     1     152.614 140.294  94.083  1.00  0.00     0.022 A 
ATOM      7  C   UNL     1     152.298 141.122  92.993  1.00  0.00     0.002 A 
ATOM      8  C   UNL     1     151.733 140.574  91.841  1.00  0.00     0.010 A 
ATOM      9  S   UNL     1     151.306 136.720  92.331  1.00  0.00    -0.128 S 
ATOM     10  Cl  UNL     1     152.764 137.875  95.408  1.00  0.00    -0.083 Cl
ENDROOT
BRANCH   1  11
ATOM     11  C   UNL     1     150.133 136.282  89.665  1.00  0.00     0.261 C 
ATOM     12  N   UNL     1     149.697 136.845  88.402  1.00  0.00    -0.347 N 
ATOM     13  O   UNL     1     150.024 135.119  89.860  1.00  0.00    -0.268 OA
ATOM     14  H   UNL     1     149.781 137.811  88.234  1.00  0.00     0.164 HD
BRANCH  12  15
ATOM     15  C   UNL     1     149.123 135.955  87.367  1.00  0.00     0.099 C 
ATOM     16  C   UNL     1     150.069 135.792  86.267  1.00  0.00     0.015 C 
ATOM     17  C   UNL     1     147.829 136.572  86.802  1.00  0.00     0.109 C 
ATOM     18  C   UNL     1     149.464 134.963  85.263  1.00  0.00     0.021 C 
ATOM     19  C   UNL     1     150.327 137.107  85.685  1.00  0.00     0.021 C 
ATOM     20  N   UNL     1     147.921 136.766  85.422  1.00  0.00    -0.301 NA
ATOM     21  C   UNL     1     148.178 135.571  84.786  1.00  0.00     0.085 C 
ATOM     22  C   UNL     1     148.965 137.681  85.138  1.00  0.00     0.085 C 
ENDBRANCH  12  15
ENDBRANCH   1  11
TORSDOF 2
ENDMDL
