MODEL 1
REMARK VINA RESULT:    -7.552      0.000      0.000
REMARK INTER + INTRA:          -8.752
REMARK INTER:                  -8.435
REMARK INTRA:                  -0.316
REMARK UNBOUND:                -0.316
REMARK SMILES O=C(N[C@H]1CN2CCC1CC2)c1cc2cccc(Cl)c2s1
REMARK SMILES IDX 12 1 13 2 14 3 20 4 18 5 17 6 16 7 15 8 21 9 19 10 2 11 3 12
REMARK SMILES IDX 1 13 4 15 9 16 5 17 8 18 10 19 6 20 7 21 11 22
REMARK H PARENT 3 14
ROOT
ATOM      1  C   UNL     1     143.539 138.616  90.844  1.00  0.00     0.093 A 
ATOM      2  C   UNL     1     143.803 137.312  91.088  1.00  0.00     0.034 A 
ATOM      3  C   UNL     1     145.167 136.870  91.161  1.00  0.00    -0.005 A 
ATOM      4  C   UNL     1     146.118 137.929  90.957  1.00  0.00     0.054 A 
ATOM      5  C   UNL     1     147.464 137.653  90.999  1.00  0.00     0.058 A 
ATOM      6  C   UNL     1     147.899 136.346  91.242  1.00  0.00     0.022 A 
ATOM      7  C   UNL     1     146.966 135.314  91.440  1.00  0.00     0.002 A 
ATOM      8  C   UNL     1     145.600 135.592  91.397  1.00  0.00     0.010 A 
ATOM      9  S   UNL     1     145.085 139.400  90.687  1.00  0.00    -0.128 S 
ATOM     10  Cl  UNL     1     148.652 138.957  90.746  1.00  0.00    -0.083 Cl
ENDROOT
BRANCH   1  11
ATOM     11  C   UNL     1     142.144 139.243  90.735  1.00  0.00     0.261 C 
ATOM     12  N   UNL     1     141.003 138.439  90.345  1.00  0.00    -0.347 N 
ATOM     13  O   UNL     1     142.000 140.395  90.968  1.00  0.00    -0.268 OA
ATOM     14  H   UNL     1     141.115 137.481  90.147  1.00  0.00     0.164 HD
BRANCH  12  15
ATOM     15  C   UNL     1     139.667 139.070  90.247  1.00  0.00     0.099 C 
ATOM     16  C   UNL     1     138.640 138.142  90.712  1.00  0.00     0.015 C 
ATOM     17  C   UNL     1     139.362 139.428  88.779  1.00  0.00     0.109 C 
ATOM     18  C   UNL     1     137.356 138.767  90.561  1.00  0.00     0.021 C 
ATOM     19  C   UNL     1     138.677 136.953  89.864  1.00  0.00     0.021 C 
ATOM     20  N   UNL     1     138.196 138.798  88.336  1.00  0.00    -0.301 NA
ATOM     21  C   UNL     1     137.127 139.153  89.129  1.00  0.00     0.085 C 
ATOM     22  C   UNL     1     138.367 137.393  88.383  1.00  0.00     0.085 C 
ENDBRANCH  12  15
ENDBRANCH   1  11
TORSDOF 2
ENDMDL
MODEL 2
REMARK VINA RESULT:    -7.528      2.756      3.513
REMARK INTER + INTRA:          -8.725
REMARK INTER:                  -8.392
REMARK INTRA:                  -0.332
REMARK UNBOUND:                -0.316
REMARK SMILES O=C(N[C@H]1CN2CCC1CC2)c1cc2cccc(Cl)c2s1
REMARK SMILES IDX 12 1 13 2 14 3 20 4 18 5 17 6 16 7 15 8 21 9 19 10 2 11 3 12
REMARK SMILES IDX 1 13 4 15 9 16 5 17 8 18 10 19 6 20 7 21 11 22
REMARK H PARENT 3 14
ROOT
ATOM      1  C   UNL     1     143.783 139.901  90.098  1.00  0.00     0.093 A 
ATOM      2  C   UNL     1     144.336 140.164  88.891  1.00  0.00     0.034 A 
ATOM      3  C   UNL     1     145.617 140.808  88.827  1.00  0.00    -0.005 A 
ATOM      4  C   UNL     1     146.172 141.100  90.121  1.00  0.00     0.054 A 
ATOM      5  C   UNL     1     147.397 141.715  90.214  1.00  0.00     0.058 A 
ATOM      6  C   UNL     1     148.096 142.054  89.052  1.00  0.00     0.022 A 
ATOM      7  C   UNL     1     147.551 141.767  87.789  1.00  0.00     0.002 A 
ATOM      8  C   UNL     1     146.307 141.143  87.691  1.00  0.00     0.010 A 
ATOM      9  S   UNL     1     144.917 140.483  91.284  1.00  0.00    -0.128 S 
ATOM     10  Cl  UNL     1     148.093 142.083  91.814  1.00  0.00    -0.083 Cl
ENDROOT
BRANCH   1  11
ATOM     11  C   UNL     1     142.429 139.225  90.336  1.00  0.00     0.261 C 
ATOM     12  N   UNL     1     141.201 139.857  89.893  1.00  0.00    -0.347 N 
ATOM     13  O   UNL     1     142.385 138.179  90.889  1.00  0.00    -0.268 OA
ATOM     14  H   UNL     1     141.229 140.728  89.435  1.00  0.00     0.164 HD
BRANCH  12  15
ATOM     15  C   UNL     1     139.906 139.182  90.135  1.00  0.00     0.099 C 
ATOM     16  C   UNL     1     139.456 138.512  88.919  1.00  0.00     0.015 C 
ATOM     17  C   UNL     1     138.839 140.221  90.535  1.00  0.00     0.109 C 
ATOM     18  C   UNL     1     138.178 137.908  89.175  1.00  0.00     0.021 C 
ATOM     19  C   UNL     1     139.288 139.519  87.874  1.00  0.00     0.021 C 
ATOM     20  N   UNL     1     137.756 140.200  89.652  1.00  0.00    -0.301 NA
ATOM     21  C   UNL     1     137.189 138.944  89.619  1.00  0.00     0.085 C 
ATOM     22  C   UNL     1     138.195 140.549  88.351  1.00  0.00     0.085 C 
ENDBRANCH  12  15
ENDBRANCH   1  11
TORSDOF 2
ENDMDL
MODEL 3
REMARK VINA RESULT:    -7.441      3.168      3.876
REMARK INTER + INTRA:          -8.628
REMARK INTER:                  -8.316
REMARK INTRA:                  -0.312
REMARK UNBOUND:                -0.316
REMARK SMILES O=C(N[C@H]1CN2CCC1CC2)c1cc2cccc(Cl)c2s1
REMARK SMILES IDX 12 1 13 2 14 3 20 4 18 5 17 6 16 7 15 8 21 9 19 10 2 11 3 12
REMARK SMILES IDX 1 13 4 15 9 16 5 17 8 18 10 19 6 20 7 21 11 22
REMARK H PARENT 3 14
ROOT
ATOM      1  C   UNL     1     143.914 140.032  89.439  1.00  0.00     0.093 A 
ATOM      2  C   UNL     1     144.945 140.682  90.027  1.00  0.00     0.034 A 
ATOM      3  C   UNL     1     146.039 141.144  89.221  1.00  0.00    -0.005 A 
ATOM      4  C   UNL     1     145.882 140.841  87.824  1.00  0.00     0.054 A 
ATOM      5  C   UNL     1     146.853 141.225  86.930  1.00  0.00     0.058 A 
ATOM      6  C   UNL     1     147.986 141.908  87.384  1.00  0.00     0.022 A 
ATOM      7  C   UNL     1     148.136 142.202  88.750  1.00  0.00     0.002 A 
ATOM      8  C   UNL     1     147.151 141.813  89.659  1.00  0.00     0.010 A 
ATOM      9  S   UNL     1     144.290 139.968  87.741  1.00  0.00    -0.128 S 
ATOM     10  Cl  UNL     1     146.670 140.853  85.196  1.00  0.00    -0.083 Cl
ENDROOT
BRANCH   1  11
ATOM     11  C   UNL     1     142.679 139.477  90.157  1.00  0.00     0.261 C 
ATOM     12  N   UNL     1     141.345 139.807  89.693  1.00  0.00    -0.347 N 
ATOM     13  O   UNL     1     142.816 138.774  91.101  1.00  0.00    -0.268 OA
ATOM     14  H   UNL     1     141.223 140.392  88.911  1.00  0.00     0.164 HD
BRANCH  12  15
ATOM     15  C   UNL     1     140.169 139.257  90.405  1.00  0.00     0.099 C 
ATOM     16  C   UNL     1     139.593 138.154  89.641  1.00  0.00     0.015 C 
ATOM     17  C   UNL     1     139.092 140.349  90.562  1.00  0.00     0.109 C 
ATOM     18  C   UNL     1     138.430 137.676  90.335  1.00  0.00     0.021 C 
ATOM     19  C   UNL     1     139.174 138.667  88.339  1.00  0.00     0.021 C 
ATOM     20  N   UNL     1     137.889 139.963  89.965  1.00  0.00    -0.301 NA
ATOM     21  C   UNL     1     137.436 138.785  90.519  1.00  0.00     0.085 C 
ATOM     22  C   UNL     1     138.084 139.781  88.574  1.00  0.00     0.085 C 
ENDBRANCH  12  15
ENDBRANCH   1  11
TORSDOF 2
ENDMDL
MODEL 4
REMARK VINA RESULT:    -7.356      1.473      1.836
REMARK INTER + INTRA:          -8.532
REMARK INTER:                  -8.244
REMARK INTRA:                  -0.288
REMARK UNBOUND:                -0.316
REMARK SMILES O=C(N[C@H]1CN2CCC1CC2)c1cc2cccc(Cl)c2s1
REMARK SMILES IDX 12 1 13 2 14 3 20 4 18 5 17 6 16 7 15 8 21 9 19 10 2 11 3 12
REMARK SMILES IDX 1 13 4 15 9 16 5 17 8 18 10 19 6 20 7 21 11 22
REMARK H PARENT 3 14
ROOT
ATOM      1  C   UNL     1     143.548 138.248  90.716  1.00  0.00     0.093 A 
ATOM      2  C   UNL     1     144.757 138.732  90.349  1.00  0.00     0.034 A 
ATOM      3  C   UNL     1     145.923 137.909  90.501  1.00  0.00    -0.005 A 
ATOM      4  C   UNL     1     145.634 136.611  91.048  1.00  0.00     0.054 A 
ATOM      5  C   UNL     1     146.655 135.713  91.249  1.00  0.00     0.058 A 
ATOM      6  C   UNL     1     147.967 136.066  90.919  1.00  0.00     0.022 A 
ATOM      7  C   UNL     1     148.246 137.336  90.385  1.00  0.00     0.002 A 
ATOM      8  C   UNL     1     147.211 138.249  90.181  1.00  0.00     0.010 A 
ATOM      9  S   UNL     1     143.834 136.635  91.303  1.00  0.00    -0.128 S 
ATOM     10  Cl  UNL     1     146.308 134.102  91.928  1.00  0.00    -0.083 Cl
ENDROOT
BRANCH   1  11
ATOM     11  C   UNL     1     142.215 138.999  90.620  1.00  0.00     0.261 C 
ATOM     12  N   UNL     1     140.984 138.283  90.344  1.00  0.00    -0.347 N 
ATOM     13  O   UNL     1     142.192 140.173  90.769  1.00  0.00    -0.268 OA
ATOM     14  H   UNL     1     140.995 137.307  90.216  1.00  0.00     0.164 HD
BRANCH  12  15
ATOM     15  C   UNL     1     139.710 139.033  90.256  1.00  0.00     0.099 C 
ATOM     16  C   UNL     1     138.604 138.193  90.708  1.00  0.00     0.015 C 
ATOM     17  C   UNL     1     139.440 139.439  88.794  1.00  0.00     0.109 C 
ATOM     18  C   UNL     1     137.381 138.933  90.566  1.00  0.00     0.021 C 
ATOM     19  C   UNL     1     138.535 137.019  89.842  1.00  0.00     0.021 C 
ATOM     20  N   UNL     1     138.223 138.923  88.342  1.00  0.00    -0.301 NA
ATOM     21  C   UNL     1     137.190 139.360  89.141  1.00  0.00     0.085 C 
ATOM     22  C   UNL     1     138.268 137.507  88.368  1.00  0.00     0.085 C 
ENDBRANCH  12  15
ENDBRANCH   1  11
TORSDOF 2
ENDMDL
MODEL 5
REMARK VINA RESULT:    -6.602      3.292      7.842
REMARK INTER + INTRA:          -7.691
REMARK INTER:                  -7.391
REMARK INTRA:                  -0.299
REMARK UNBOUND:                -0.316
REMARK SMILES O=C(N[C@H]1CN2CCC1CC2)c1cc2cccc(Cl)c2s1
REMARK SMILES IDX 12 1 13 2 14 3 20 4 18 5 17 6 16 7 15 8 21 9 19 10 2 11 3 12
REMARK SMILES IDX 1 13 4 15 9 16 5 17 8 18 10 19 6 20 7 21 11 22
REMARK H PARENT 3 14
ROOT
ATOM      1  C   UNL     1     142.820 138.407  91.013  1.00  0.00     0.093 A 
ATOM      2  C   UNL     1     142.010 137.324  90.968  1.00  0.00     0.034 A 
ATOM      3  C   UNL     1     140.686 137.455  90.432  1.00  0.00    -0.005 A 
ATOM      4  C   UNL     1     140.382 138.789  89.989  1.00  0.00     0.054 A 
ATOM      5  C   UNL     1     139.147 139.064  89.451  1.00  0.00     0.058 A 
ATOM      6  C   UNL     1     138.196 138.046  89.336  1.00  0.00     0.022 A 
ATOM      7  C   UNL     1     138.496 136.744  89.770  1.00  0.00     0.002 A 
ATOM      8  C   UNL     1     139.748 136.462  90.317  1.00  0.00     0.010 A 
ATOM      9  S   UNL     1     141.901 139.724  90.341  1.00  0.00    -0.128 S 
ATOM     10  Cl  UNL     1     138.760 140.715  88.900  1.00  0.00    -0.083 Cl
ENDROOT
BRANCH   1  11
ATOM     11  C   UNL     1     144.253 138.433  91.555  1.00  0.00     0.261 C 
ATOM     12  N   UNL     1     145.109 137.269  91.433  1.00  0.00    -0.347 N 
ATOM     13  O   UNL     1     144.663 139.412  92.081  1.00  0.00    -0.268 OA
ATOM     14  H   UNL     1     144.775 136.450  91.000  1.00  0.00     0.164 HD
BRANCH  12  15
ATOM     15  C   UNL     1     146.490 137.320  91.966  1.00  0.00     0.099 C 
ATOM     16  C   UNL     1     147.413 137.750  90.920  1.00  0.00     0.015 C 
ATOM     17  C   UNL     1     146.921 135.920  92.444  1.00  0.00     0.109 C 
ATOM     18  C   UNL     1     148.746 137.744  91.456  1.00  0.00     0.021 C 
ATOM     19  C   UNL     1     147.352 136.782  89.827  1.00  0.00     0.021 C 
ATOM     20  N   UNL     1     148.067 135.487  91.773  1.00  0.00    -0.301 NA
ATOM     21  C   UNL     1     149.100 136.378  91.963  1.00  0.00     0.085 C 
ATOM     22  C   UNL     1     147.795 135.376  90.387  1.00  0.00     0.085 C 
ENDBRANCH  12  15
ENDBRANCH   1  11
TORSDOF 2
ENDMDL
MODEL 6
REMARK VINA RESULT:    -6.362      3.315      7.967
REMARK INTER + INTRA:          -7.423
REMARK INTER:                  -7.136
REMARK INTRA:                  -0.286
REMARK UNBOUND:                -0.316
REMARK SMILES O=C(N[C@H]1CN2CCC1CC2)c1cc2cccc(Cl)c2s1
REMARK SMILES IDX 12 1 13 2 14 3 20 4 18 5 17 6 16 7 15 8 21 9 19 10 2 11 3 12
REMARK SMILES IDX 1 13 4 15 9 16 5 17 8 18 10 19 6 20 7 21 11 22
REMARK H PARENT 3 14
ROOT
ATOM      1  C   UNL     1     142.591 138.791  90.470  1.00  0.00     0.093 A 
ATOM      2  C   UNL     1     141.636 139.693  90.143  1.00  0.00     0.034 A 
ATOM      3  C   UNL     1     140.266 139.273  90.061  1.00  0.00    -0.005 A 
ATOM      4  C   UNL     1     140.082 137.877  90.357  1.00  0.00     0.054 A 
ATOM      5  C   UNL     1     138.821 137.334  90.319  1.00  0.00     0.058 A 
ATOM      6  C   UNL     1     137.725 138.139  89.995  1.00  0.00     0.022 A 
ATOM      7  C   UNL     1     137.909 139.502  89.706  1.00  0.00     0.002 A 
ATOM      8  C   UNL     1     139.189 140.056  89.743  1.00  0.00     0.010 A 
ATOM      9  S   UNL     1     141.763 137.279  90.709  1.00  0.00    -0.128 S 
ATOM     10  Cl  UNL     1     138.581 135.605  90.683  1.00  0.00    -0.083 Cl
ENDROOT
BRANCH   1  11
ATOM     11  C   UNL     1     144.091 139.079  90.595  1.00  0.00     0.261 C 
ATOM     12  N   UNL     1     145.014 138.029  90.979  1.00  0.00    -0.347 N 
ATOM     13  O   UNL     1     144.498 140.170  90.379  1.00  0.00    -0.268 OA
ATOM     14  H   UNL     1     144.683 137.120  91.163  1.00  0.00     0.164 HD
BRANCH  12  15
ATOM     15  C   UNL     1     146.458 138.335  91.094  1.00  0.00     0.099 C 
ATOM     16  C   UNL     1     147.130 138.056  89.828  1.00  0.00     0.015 C 
ATOM     17  C   UNL     1     147.098 137.451  92.183  1.00  0.00     0.109 C 
ATOM     18  C   UNL     1     148.533 138.318  89.987  1.00  0.00     0.021 C 
ATOM     19  C   UNL     1     146.958 136.638  89.519  1.00  0.00     0.021 C 
ATOM     20  N   UNL     1     148.136 136.675  91.660  1.00  0.00    -0.301 NA
ATOM     21  C   UNL     1     149.100 137.482  91.096  1.00  0.00     0.085 C 
ATOM     22  C   UNL     1     147.624 135.797  90.674  1.00  0.00     0.085 C 
ENDBRANCH  12  15
ENDBRANCH   1  11
TORSDOF 2
ENDMDL
MODEL 7
REMARK VINA RESULT:    -6.305      4.486      5.603
REMARK INTER + INTRA:          -7.359
REMARK INTER:                  -7.041
REMARK INTRA:                  -0.317
REMARK UNBOUND:                -0.316
REMARK SMILES O=C(N[C@H]1CN2CCC1CC2)c1cc2cccc(Cl)c2s1
REMARK SMILES IDX 12 1 13 2 14 3 20 4 18 5 17 6 16 7 15 8 21 9 19 10 2 11 3 12
REMARK SMILES IDX 1 13 4 15 9 16 5 17 8 18 10 19 6 20 7 21 11 22
REMARK H PARENT 3 14
ROOT
ATOM      1  C   UNL     1     144.353 139.713  92.855  1.00  0.00     0.093 A 
ATOM      2  C   UNL     1     143.610 138.654  92.457  1.00  0.00     0.034 A 
ATOM      3  C   UNL     1     144.263 137.424  92.110  1.00  0.00    -0.005 A 
ATOM      4  C   UNL     1     145.694 137.484  92.242  1.00  0.00     0.054 A 
ATOM      5  C   UNL     1     146.452 136.378  91.944  1.00  0.00     0.058 A 
ATOM      6  C   UNL     1     145.829 135.201  91.516  1.00  0.00     0.022 A 
ATOM      7  C   UNL     1     144.431 135.147  91.388  1.00  0.00     0.002 A 
ATOM      8  C   UNL     1     143.659 136.269  91.689  1.00  0.00     0.010 A 
ATOM      9  S   UNL     1     146.010 139.181  92.813  1.00  0.00    -0.128 S 
ATOM     10  Cl  UNL     1     148.227 136.442  92.103  1.00  0.00    -0.083 Cl
ENDROOT
BRANCH   1  11
ATOM     11  C   UNL     1     143.810 141.089  93.256  1.00  0.00     0.261 C 
ATOM     12  N   UNL     1     142.912 141.227  94.386  1.00  0.00    -0.347 N 
ATOM     13  O   UNL     1     144.125 142.047  92.634  1.00  0.00    -0.268 OA
ATOM     14  H   UNL     1     142.643 140.436  94.906  1.00  0.00     0.164 HD
BRANCH  12  15
ATOM     15  C   UNL     1     142.402 142.569  94.751  1.00  0.00     0.099 C 
ATOM     16  C   UNL     1     142.508 142.768  96.193  1.00  0.00     0.015 C 
ATOM     17  C   UNL     1     140.917 142.692  94.356  1.00  0.00     0.109 C 
ATOM     18  C   UNL     1     141.964 144.057  96.518  1.00  0.00     0.021 C 
ATOM     19  C   UNL     1     141.703 141.747  96.859  1.00  0.00     0.021 C 
ATOM     20  N   UNL     1     140.121 142.984  95.466  1.00  0.00    -0.301 NA
ATOM     21  C   UNL     1     140.538 144.154  96.062  1.00  0.00     0.085 C 
ATOM     22  C   UNL     1     140.205 141.925  96.404  1.00  0.00     0.085 C 
ENDBRANCH  12  15
ENDBRANCH   1  11
TORSDOF 2
ENDMDL
MODEL 8
REMARK VINA RESULT:    -6.300      3.914      7.797
REMARK INTER + INTRA:          -7.353
REMARK INTER:                  -7.081
REMARK INTRA:                  -0.272
REMARK UNBOUND:                -0.316
REMARK SMILES O=C(N[C@H]1CN2CCC1CC2)c1cc2cccc(Cl)c2s1
REMARK SMILES IDX 12 1 13 2 14 3 20 4 18 5 17 6 16 7 15 8 21 9 19 10 2 11 3 12
REMARK SMILES IDX 1 13 4 15 9 16 5 17 8 18 10 19 6 20 7 21 11 22
REMARK H PARENT 3 14
ROOT
ATOM      1  C   UNL     1     142.583 138.921  90.514  1.00  0.00     0.093 A 
ATOM      2  C   UNL     1     141.565 139.774  90.253  1.00  0.00     0.034 A 
ATOM      3  C   UNL     1     140.222 139.271  90.189  1.00  0.00    -0.005 A 
ATOM      4  C   UNL     1     140.134 137.855  90.425  1.00  0.00     0.054 A 
ATOM      5  C   UNL     1     138.908 137.234  90.396  1.00  0.00     0.058 A 
ATOM      6  C   UNL     1     137.755 137.982  90.137  1.00  0.00     0.022 A 
ATOM      7  C   UNL     1     137.846 139.365  89.906  1.00  0.00     0.002 A 
ATOM      8  C   UNL     1     139.089 139.998  89.935  1.00  0.00     0.010 A 
ATOM      9  S   UNL     1     141.858 137.350  90.706  1.00  0.00    -0.128 S 
ATOM     10  Cl  UNL     1     138.788 135.480  90.687  1.00  0.00    -0.083 Cl
ENDROOT
BRANCH   1  11
ATOM     11  C   UNL     1     144.065 139.298  90.613  1.00  0.00     0.261 C 
ATOM     12  N   UNL     1     144.738 139.942  89.502  1.00  0.00    -0.347 N 
ATOM     13  O   UNL     1     144.665 139.058  91.605  1.00  0.00    -0.268 OA
ATOM     14  H   UNL     1     144.247 140.143  88.673  1.00  0.00     0.164 HD
BRANCH  12  15
ATOM     15  C   UNL     1     146.171 140.296  89.624  1.00  0.00     0.099 C 
ATOM     16  C   UNL     1     146.479 141.438  88.768  1.00  0.00     0.015 C 
ATOM     17  C   UNL     1     147.045 139.108  89.175  1.00  0.00     0.109 C 
ATOM     18  C   UNL     1     147.882 141.724  88.875  1.00  0.00     0.021 C 
ATOM     19  C   UNL     1     146.189 141.067  87.385  1.00  0.00     0.021 C 
ATOM     20  N   UNL     1     147.886 139.469  88.119  1.00  0.00    -0.301 NA
ATOM     21  C   UNL     1     148.693 140.523  88.487  1.00  0.00     0.085 C 
ATOM     22  C   UNL     1     147.107 139.846  86.998  1.00  0.00     0.085 C 
ENDBRANCH  12  15
ENDBRANCH   1  11
TORSDOF 2
ENDMDL
MODEL 9
REMARK VINA RESULT:    -6.286      4.710      7.782
REMARK INTER + INTRA:          -7.337
REMARK INTER:                  -7.027
REMARK INTRA:                  -0.311
REMARK UNBOUND:                -0.316
REMARK SMILES O=C(N[C@H]1CN2CCC1CC2)c1cc2cccc(Cl)c2s1
REMARK SMILES IDX 12 1 13 2 14 3 20 4 18 5 17 6 16 7 15 8 21 9 19 10 2 11 3 12
REMARK SMILES IDX 1 13 4 15 9 16 5 17 8 18 10 19 6 20 7 21 11 22
REMARK H PARENT 3 14
ROOT
ATOM      1  C   UNL     1     144.018 140.760  93.146  1.00  0.00     0.093 A 
ATOM      2  C   UNL     1     142.942 141.176  92.439  1.00  0.00     0.034 A 
ATOM      3  C   UNL     1     141.890 141.887  93.108  1.00  0.00    -0.005 A 
ATOM      4  C   UNL     1     142.135 142.073  94.513  1.00  0.00     0.054 A 
ATOM      5  C   UNL     1     141.211 142.739  95.282  1.00  0.00     0.058 A 
ATOM      6  C   UNL     1     140.041 143.231  94.696  1.00  0.00     0.022 A 
ATOM      7  C   UNL     1     139.805 143.046  93.323  1.00  0.00     0.002 A 
ATOM      8  C   UNL     1     140.741 142.370  92.540  1.00  0.00     0.010 A 
ATOM      9  S   UNL     1     143.745 141.275  94.786  1.00  0.00    -0.128 S 
ATOM     10  Cl  UNL     1     141.504 142.975  97.025  1.00  0.00    -0.083 Cl
ENDROOT
BRANCH   1  11
ATOM     11  C   UNL     1     145.219 139.992  92.582  1.00  0.00     0.261 C 
ATOM     12  N   UNL     1     145.034 138.711  91.929  1.00  0.00    -0.347 N 
ATOM     13  O   UNL     1     146.307 140.448  92.685  1.00  0.00    -0.268 OA
ATOM     14  H   UNL     1     144.133 138.324  91.842  1.00  0.00     0.164 HD
BRANCH  12  15
ATOM     15  C   UNL     1     146.211 137.990  91.393  1.00  0.00     0.099 C 
ATOM     16  C   UNL     1     145.859 137.313  90.148  1.00  0.00     0.015 C 
ATOM     17  C   UNL     1     146.679 136.924  92.404  1.00  0.00     0.109 C 
ATOM     18  C   UNL     1     147.008 136.588  89.681  1.00  0.00     0.021 C 
ATOM     19  C   UNL     1     144.793 136.356  90.430  1.00  0.00     0.021 C 
ATOM     20  N   UNL     1     146.661 135.647  91.838  1.00  0.00    -0.301 NA
ATOM     21  C   UNL     1     147.464 135.606  90.720  1.00  0.00     0.085 C 
ATOM     22  C   UNL     1     145.335 135.306  91.474  1.00  0.00     0.085 C 
ENDBRANCH  12  15
ENDBRANCH   1  11
TORSDOF 2
ENDMDL
MODEL 10
REMARK VINA RESULT:    -6.185      5.031      7.786
REMARK INTER + INTRA:          -7.225
REMARK INTER:                  -6.915
REMARK INTRA:                  -0.310
REMARK UNBOUND:                -0.316
REMARK SMILES O=C(N[C@H]1CN2CCC1CC2)c1cc2cccc(Cl)c2s1
REMARK SMILES IDX 12 1 13 2 14 3 20 4 18 5 17 6 16 7 15 8 21 9 19 10 2 11 3 12
REMARK SMILES IDX 1 13 4 15 9 16 5 17 8 18 10 19 6 20 7 21 11 22
REMARK H PARENT 3 14
ROOT
ATOM      1  C   UNL     1     143.794 140.610  93.545  1.00  0.00     0.093 A 
ATOM      2  C   UNL     1     143.487 140.578  94.862  1.00  0.00     0.034 A 
ATOM      3  C   UNL     1     142.338 141.295  95.337  1.00  0.00    -0.005 A 
ATOM      4  C   UNL     1     141.629 141.986  94.293  1.00  0.00     0.054 A 
ATOM      5  C   UNL     1     140.506 142.716  94.600  1.00  0.00     0.058 A 
ATOM      6  C   UNL     1     140.058 142.781  95.923  1.00  0.00     0.022 A 
ATOM      7  C   UNL     1     140.753 142.105  96.940  1.00  0.00     0.002 A 
ATOM      8  C   UNL     1     141.894 141.364  96.631  1.00  0.00     0.010 A 
ATOM      9  S   UNL     1     142.579 141.603  92.791  1.00  0.00    -0.128 S 
ATOM     10  Cl  UNL     1     139.621 143.577  93.314  1.00  0.00    -0.083 Cl
ENDROOT
BRANCH   1  11
ATOM     11  C   UNL     1     144.983 139.903  92.884  1.00  0.00     0.261 C 
ATOM     12  N   UNL     1     144.815 138.604  92.263  1.00  0.00    -0.347 N 
ATOM     13  O   UNL     1     146.048 140.422  92.885  1.00  0.00    -0.268 OA
ATOM     14  H   UNL     1     143.934 138.165  92.260  1.00  0.00     0.164 HD
BRANCH  12  15
ATOM     15  C   UNL     1     145.980 137.943  91.632  1.00  0.00     0.099 C 
ATOM     16  C   UNL     1     145.574 137.296  90.387  1.00  0.00     0.015 C 
ATOM     17  C   UNL     1     146.545 136.862  92.574  1.00  0.00     0.109 C 
ATOM     18  C   UNL     1     146.715 136.627  89.826  1.00  0.00     0.021 C 
ATOM     19  C   UNL     1     144.560 136.292  90.701  1.00  0.00     0.021 C 
ATOM     20  N   UNL     1     146.534 135.604  91.966  1.00  0.00    -0.301 NA
ATOM     21  C   UNL     1     147.268 135.629  90.800  1.00  0.00     0.085 C 
ATOM     22  C   UNL     1     145.200 135.229  91.672  1.00  0.00     0.085 C 
ENDBRANCH  12  15
ENDBRANCH   1  11
TORSDOF 2
ENDMDL
MODEL 11
REMARK VINA RESULT:    -6.021      3.814      7.776
REMARK INTER + INTRA:          -7.041
REMARK INTER:                  -6.729
REMARK INTRA:                  -0.312
REMARK UNBOUND:                -0.316
REMARK SMILES O=C(N[C@H]1CN2CCC1CC2)c1cc2cccc(Cl)c2s1
REMARK SMILES IDX 12 1 13 2 14 3 20 4 18 5 17 6 16 7 15 8 21 9 19 10 2 11 3 12
REMARK SMILES IDX 1 13 4 15 9 16 5 17 8 18 10 19 6 20 7 21 11 22
REMARK H PARENT 3 14
ROOT
ATOM      1  C   UNL     1     143.016 138.384  90.781  1.00  0.00     0.093 A 
ATOM      2  C   UNL     1     142.284 137.246  90.774  1.00  0.00     0.034 A 
ATOM      3  C   UNL     1     140.878 137.312  90.496  1.00  0.00    -0.005 A 
ATOM      4  C   UNL     1     140.411 138.649  90.245  1.00  0.00     0.054 A 
ATOM      5  C   UNL     1     139.084 138.866  89.963  1.00  0.00     0.058 A 
ATOM      6  C   UNL     1     138.196 137.786  89.920  1.00  0.00     0.022 A 
ATOM      7  C   UNL     1     138.656 136.481  90.166  1.00  0.00     0.002 A 
ATOM      8  C   UNL     1     140.003 136.259  90.453  1.00  0.00     0.010 A 
ATOM      9  S   UNL     1     141.905 139.672  90.412  1.00  0.00    -0.128 S 
ATOM     10  Cl  UNL     1     138.494 140.519  89.652  1.00  0.00    -0.083 Cl
ENDROOT
BRANCH   1  11
ATOM     11  C   UNL     1     144.519 138.482  91.061  1.00  0.00     0.261 C 
ATOM     12  N   UNL     1     145.358 139.373  90.283  1.00  0.00    -0.347 N 
ATOM     13  O   UNL     1     145.000 137.821  91.918  1.00  0.00    -0.268 OA
ATOM     14  H   UNL     1     144.967 139.924  89.568  1.00  0.00     0.164 HD
BRANCH  12  15
ATOM     15  C   UNL     1     146.808 139.448  90.575  1.00  0.00     0.099 C 
ATOM     16  C   UNL     1     147.101 140.653  91.346  1.00  0.00     0.015 C 
ATOM     17  C   UNL     1     147.606 139.513  89.257  1.00  0.00     0.109 C 
ATOM     18  C   UNL     1     148.518 140.718  91.570  1.00  0.00     0.021 C 
ATOM     19  C   UNL     1     146.707 141.814  90.552  1.00  0.00     0.021 C 
ATOM     20  N   UNL     1     148.388 140.670  89.196  1.00  0.00    -0.301 NA
ATOM     21  C   UNL     1     149.256 140.718  90.265  1.00  0.00     0.085 C 
ATOM     22  C   UNL     1     147.551 141.813  89.221  1.00  0.00     0.085 C 
ENDBRANCH  12  15
ENDBRANCH   1  11
TORSDOF 2
ENDMDL
MODEL 12
REMARK VINA RESULT:    -6.011      4.811      8.468
REMARK INTER + INTRA:          -7.030
REMARK INTER:                  -6.708
REMARK INTRA:                  -0.322
REMARK UNBOUND:                -0.316
REMARK SMILES O=C(N[C@H]1CN2CCC1CC2)c1cc2cccc(Cl)c2s1
REMARK SMILES IDX 12 1 13 2 14 3 20 4 18 5 17 6 16 7 15 8 21 9 19 10 2 11 3 12
REMARK SMILES IDX 1 13 4 15 9 16 5 17 8 18 10 19 6 20 7 21 11 22
REMARK H PARENT 3 14
ROOT
ATOM      1  C   UNL     1     139.689 141.337  90.440  1.00  0.00     0.093 A 
ATOM      2  C   UNL     1     139.550 142.227  91.450  1.00  0.00     0.034 A 
ATOM      3  C   UNL     1     138.712 143.378  91.267  1.00  0.00    -0.005 A 
ATOM      4  C   UNL     1     138.098 143.432  89.967  1.00  0.00     0.054 A 
ATOM      5  C   UNL     1     137.267 144.480  89.650  1.00  0.00     0.058 A 
ATOM      6  C   UNL     1     137.023 145.485  90.591  1.00  0.00     0.022 A 
ATOM      7  C   UNL     1     137.626 145.429  91.859  1.00  0.00     0.002 A 
ATOM      8  C   UNL     1     138.470 144.366  92.184  1.00  0.00     0.010 A 
ATOM      9  S   UNL     1     138.711 141.939  89.131  1.00  0.00    -0.128 S 
ATOM     10  Cl  UNL     1     136.502 144.557  88.041  1.00  0.00    -0.083 Cl
ENDROOT
BRANCH   1  11
ATOM     11  C   UNL     1     140.544 140.066  90.476  1.00  0.00     0.261 C 
ATOM     12  N   UNL     1     141.970 140.143  90.723  1.00  0.00    -0.347 N 
ATOM     13  O   UNL     1     140.034 139.012  90.299  1.00  0.00    -0.268 OA
ATOM     14  H   UNL     1     142.402 141.016  90.869  1.00  0.00     0.164 HD
BRANCH  12  15
ATOM     15  C   UNL     1     142.773 138.899  90.752  1.00  0.00     0.099 C 
ATOM     16  C   UNL     1     143.334 138.698  92.085  1.00  0.00     0.015 C 
ATOM     17  C   UNL     1     143.939 139.003  89.750  1.00  0.00     0.109 C 
ATOM     18  C   UNL     1     144.142 137.511  92.067  1.00  0.00     0.021 C 
ATOM     19  C   UNL     1     144.194 139.836  92.398  1.00  0.00     0.021 C 
ATOM     20  N   UNL     1     145.172 138.846  90.389  1.00  0.00    -0.301 NA
ATOM     21  C   UNL     1     145.226 137.631  91.036  1.00  0.00     0.085 C 
ATOM     22  C   UNL     1     145.354 139.887  91.333  1.00  0.00     0.085 C 
ENDBRANCH  12  15
ENDBRANCH   1  11
TORSDOF 2
ENDMDL
MODEL 13
REMARK VINA RESULT:    -6.009      4.786      5.701
REMARK INTER + INTRA:          -7.028
REMARK INTER:                  -6.721
REMARK INTRA:                  -0.307
REMARK UNBOUND:                -0.316
REMARK SMILES O=C(N[C@H]1CN2CCC1CC2)c1cc2cccc(Cl)c2s1
REMARK SMILES IDX 12 1 13 2 14 3 20 4 18 5 17 6 16 7 15 8 21 9 19 10 2 11 3 12
REMARK SMILES IDX 1 13 4 15 9 16 5 17 8 18 10 19 6 20 7 21 11 22
REMARK H PARENT 3 14
ROOT
ATOM      1  C   UNL     1     144.671 139.679  92.736  1.00  0.00     0.093 A 
ATOM      2  C   UNL     1     145.977 139.410  92.505  1.00  0.00     0.034 A 
ATOM      3  C   UNL     1     146.370 138.076  92.149  1.00  0.00    -0.005 A 
ATOM      4  C   UNL     1     145.265 137.158  92.080  1.00  0.00     0.054 A 
ATOM      5  C   UNL     1     145.491 135.844  91.748  1.00  0.00     0.058 A 
ATOM      6  C   UNL     1     146.792 135.407  91.480  1.00  0.00     0.022 A 
ATOM      7  C   UNL     1     147.869 136.307  91.549  1.00  0.00     0.002 A 
ATOM      8  C   UNL     1     147.642 137.642  91.886  1.00  0.00     0.010 A 
ATOM      9  S   UNL     1     143.821 138.179  92.501  1.00  0.00    -0.128 S 
ATOM     10  Cl  UNL     1     144.129 134.697  91.660  1.00  0.00    -0.083 Cl
ENDROOT
BRANCH   1  11
ATOM     11  C   UNL     1     144.093 141.044  93.126  1.00  0.00     0.261 C 
ATOM     12  N   UNL     1     143.082 141.149  94.161  1.00  0.00    -0.347 N 
ATOM     13  O   UNL     1     144.473 142.021  92.574  1.00  0.00    -0.268 OA
ATOM     14  H   UNL     1     142.759 140.342  94.622  1.00  0.00     0.164 HD
BRANCH  12  15
ATOM     15  C   UNL     1     142.540 142.480  94.517  1.00  0.00     0.099 C 
ATOM     16  C   UNL     1     142.688 142.712  95.951  1.00  0.00     0.015 C 
ATOM     17  C   UNL     1     141.040 142.546  94.171  1.00  0.00     0.109 C 
ATOM     18  C   UNL     1     142.112 143.989  96.270  1.00  0.00     0.021 C 
ATOM     19  C   UNL     1     141.940 141.679  96.663  1.00  0.00     0.021 C 
ATOM     20  N   UNL     1     140.271 142.834  95.302  1.00  0.00    -0.301 NA
ATOM     21  C   UNL     1     140.669 144.029  95.860  1.00  0.00     0.085 C 
ATOM     22  C   UNL     1     140.422 141.798  96.256  1.00  0.00     0.085 C 
ENDBRANCH  12  15
ENDBRANCH   1  11
TORSDOF 2
ENDMDL
MODEL 14
REMARK VINA RESULT:    -6.005      5.014      6.118
REMARK INTER + INTRA:          -7.023
REMARK INTER:                  -6.714
REMARK INTRA:                  -0.309
REMARK UNBOUND:                -0.316
REMARK SMILES O=C(N[C@H]1CN2CCC1CC2)c1cc2cccc(Cl)c2s1
REMARK SMILES IDX 12 1 13 2 14 3 20 4 18 5 17 6 16 7 15 8 21 9 19 10 2 11 3 12
REMARK SMILES IDX 1 13 4 15 9 16 5 17 8 18 10 19 6 20 7 21 11 22
REMARK H PARENT 3 14
ROOT
ATOM      1  C   UNL     1     144.102 139.623  93.295  1.00  0.00     0.093 A 
ATOM      2  C   UNL     1     144.446 138.356  92.967  1.00  0.00     0.034 A 
ATOM      3  C   UNL     1     144.865 138.063  91.626  1.00  0.00    -0.005 A 
ATOM      4  C   UNL     1     144.865 139.216  90.767  1.00  0.00     0.054 A 
ATOM      5  C   UNL     1     145.246 139.087  89.453  1.00  0.00     0.058 A 
ATOM      6  C   UNL     1     145.630 137.836  88.959  1.00  0.00     0.022 A 
ATOM      7  C   UNL     1     145.627 136.711  89.802  1.00  0.00     0.002 A 
ATOM      8  C   UNL     1     145.241 136.840  91.136  1.00  0.00     0.010 A 
ATOM      9  S   UNL     1     144.303 140.567  91.847  1.00  0.00    -0.128 S 
ATOM     10  Cl  UNL     1     145.249 140.510  88.379  1.00  0.00    -0.083 Cl
ENDROOT
BRANCH   1  11
ATOM     11  C   UNL     1     143.634 140.096  94.676  1.00  0.00     0.261 C 
ATOM     12  N   UNL     1     143.009 141.394  94.838  1.00  0.00    -0.347 N 
ATOM     13  O   UNL     1     143.788 139.395  95.618  1.00  0.00    -0.268 OA
ATOM     14  H   UNL     1     142.880 141.983  94.060  1.00  0.00     0.164 HD
BRANCH  12  15
ATOM     15  C   UNL     1     142.566 141.826  96.183  1.00  0.00     0.099 C 
ATOM     16  C   UNL     1     141.132 141.601  96.334  1.00  0.00     0.015 C 
ATOM     17  C   UNL     1     142.839 143.332  96.367  1.00  0.00     0.109 C 
ATOM     18  C   UNL     1     140.728 142.072  97.629  1.00  0.00     0.021 C 
ATOM     19  C   UNL     1     140.434 142.387  95.320  1.00  0.00     0.021 C 
ATOM     20  N   UNL     1     141.661 144.029  96.650  1.00  0.00    -0.301 NA
ATOM     21  C   UNL     1     141.067 143.525  97.787  1.00  0.00     0.085 C 
ATOM     22  C   UNL     1     140.764 143.909  95.561  1.00  0.00     0.085 C 
ENDBRANCH  12  15
ENDBRANCH   1  11
TORSDOF 2
ENDMDL
MODEL 15
REMARK VINA RESULT:    -5.979      5.165      6.514
REMARK INTER + INTRA:          -6.995
REMARK INTER:                  -6.676
REMARK INTRA:                  -0.319
REMARK UNBOUND:                -0.316
REMARK SMILES O=C(N[C@H]1CN2CCC1CC2)c1cc2cccc(Cl)c2s1
REMARK SMILES IDX 12 1 13 2 14 3 20 4 18 5 17 6 16 7 15 8 21 9 19 10 2 11 3 12
REMARK SMILES IDX 1 13 4 15 9 16 5 17 8 18 10 19 6 20 7 21 11 22
REMARK H PARENT 3 14
ROOT
ATOM      1  C   UNL     1     144.541 141.009  92.400  1.00  0.00     0.093 A 
ATOM      2  C   UNL     1     143.899 140.402  91.376  1.00  0.00     0.034 A 
ATOM      3  C   UNL     1     144.466 140.452  90.058  1.00  0.00    -0.005 A 
ATOM      4  C   UNL     1     145.708 141.176  90.002  1.00  0.00     0.054 A 
ATOM      5  C   UNL     1     146.367 141.305  88.803  1.00  0.00     0.058 A 
ATOM      6  C   UNL     1     145.828 140.733  87.647  1.00  0.00     0.022 A 
ATOM      7  C   UNL     1     144.614 140.027  87.706  1.00  0.00     0.002 A 
ATOM      8  C   UNL     1     143.943 139.894  88.922  1.00  0.00     0.010 A 
ATOM      9  S   UNL     1     145.979 141.713  91.718  1.00  0.00    -0.128 S 
ATOM     10  Cl  UNL     1     147.906 142.201  88.722  1.00  0.00    -0.083 Cl
ENDROOT
BRANCH   1  11
ATOM     11  C   UNL     1     144.068 141.048  93.858  1.00  0.00     0.261 C 
ATOM     12  N   UNL     1     143.111 142.046  94.296  1.00  0.00    -0.347 N 
ATOM     13  O   UNL     1     144.491 140.258  94.632  1.00  0.00    -0.268 OA
ATOM     14  H   UNL     1     142.758 142.707  93.659  1.00  0.00     0.164 HD
BRANCH  12  15
ATOM     15  C   UNL     1     142.671 142.061  95.710  1.00  0.00     0.099 C 
ATOM     16  C   UNL     1     141.250 141.738  95.794  1.00  0.00     0.015 C 
ATOM     17  C   UNL     1     142.882 143.465  96.310  1.00  0.00     0.109 C 
ATOM     18  C   UNL     1     140.847 141.806  97.171  1.00  0.00     0.021 C 
ATOM     19  C   UNL     1     140.504 142.745  95.045  1.00  0.00     0.021 C 
ATOM     20  N   UNL     1     141.680 144.000  96.781  1.00  0.00    -0.301 NA
ATOM     21  C   UNL     1     141.126 143.170  97.731  1.00  0.00     0.085 C 
ATOM     22  C   UNL     1     140.772 144.151  95.704  1.00  0.00     0.085 C 
ENDBRANCH  12  15
ENDBRANCH   1  11
TORSDOF 2
ENDMDL
MODEL 16
REMARK VINA RESULT:    -5.961      4.806      5.693
REMARK INTER + INTRA:          -6.974
REMARK INTER:                  -6.710
REMARK INTRA:                  -0.264
REMARK UNBOUND:                -0.316
REMARK SMILES O=C(N[C@H]1CN2CCC1CC2)c1cc2cccc(Cl)c2s1
REMARK SMILES IDX 12 1 13 2 14 3 20 4 18 5 17 6 16 7 15 8 21 9 19 10 2 11 3 12
REMARK SMILES IDX 1 13 4 15 9 16 5 17 8 18 10 19 6 20 7 21 11 22
REMARK H PARENT 3 14
ROOT
ATOM      1  C   UNL     1     142.351 140.490  85.843  1.00  0.00     0.093 A 
ATOM      2  C   UNL     1     142.665 141.160  84.710  1.00  0.00     0.034 A 
ATOM      3  C   UNL     1     144.023 141.167  84.247  1.00  0.00    -0.005 A 
ATOM      4  C   UNL     1     144.915 140.419  85.092  1.00  0.00     0.054 A 
ATOM      5  C   UNL     1     146.249 140.337  84.772  1.00  0.00     0.058 A 
ATOM      6  C   UNL     1     146.731 140.980  83.628  1.00  0.00     0.022 A 
ATOM      7  C   UNL     1     145.856 141.710  82.805  1.00  0.00     0.002 A 
ATOM      8  C   UNL     1     144.502 141.795  83.128  1.00  0.00     0.010 A 
ATOM      9  S   UNL     1     143.838 139.790  86.416  1.00  0.00    -0.128 S 
ATOM     10  Cl  UNL     1     147.363 139.413  85.814  1.00  0.00    -0.083 Cl
ENDROOT
BRANCH   1  11
ATOM     11  C   UNL     1     140.955 140.388  86.467  1.00  0.00     0.261 C 
ATOM     12  N   UNL     1     140.781 139.850  87.802  1.00  0.00    -0.347 N 
ATOM     13  O   UNL     1     140.010 140.749  85.851  1.00  0.00    -0.268 OA
ATOM     14  H   UNL     1     141.561 139.545  88.320  1.00  0.00     0.164 HD
BRANCH  12  15
ATOM     15  C   UNL     1     139.421 139.763  88.381  1.00  0.00     0.099 C 
ATOM     16  C   UNL     1     139.490 139.859  89.836  1.00  0.00     0.015 C 
ATOM     17  C   UNL     1     138.781 138.408  88.018  1.00  0.00     0.109 C 
ATOM     18  C   UNL     1     138.162 139.725  90.367  1.00  0.00     0.021 C 
ATOM     19  C   UNL     1     140.299 138.749  90.332  1.00  0.00     0.021 C 
ATOM     20  N   UNL     1     138.431 137.691  89.164  1.00  0.00    -0.301 NA
ATOM     21  C   UNL     1     137.557 138.421  89.939  1.00  0.00     0.085 C 
ATOM     22  C   UNL     1     139.594 137.401  89.919  1.00  0.00     0.085 C 
ENDBRANCH  12  15
ENDBRANCH   1  11
TORSDOF 2
ENDMDL
MODEL 17
REMARK VINA RESULT:    -5.888      7.087      9.668
REMARK INTER + INTRA:          -6.893
REMARK INTER:                  -6.567
REMARK INTRA:                  -0.326
REMARK UNBOUND:                -0.316
REMARK SMILES O=C(N[C@H]1CN2CCC1CC2)c1cc2cccc(Cl)c2s1
REMARK SMILES IDX 12 1 13 2 14 3 20 4 18 5 17 6 16 7 15 8 21 9 19 10 2 11 3 12
REMARK SMILES IDX 1 13 4 15 9 16 5 17 8 18 10 19 6 20 7 21 11 22
REMARK H PARENT 3 14
ROOT
ATOM      1  C   UNL     1     139.584 143.080  92.091  1.00  0.00     0.093 A 
ATOM      2  C   UNL     1     138.793 144.160  91.891  1.00  0.00     0.034 A 
ATOM      3  C   UNL     1     138.055 144.278  90.666  1.00  0.00    -0.005 A 
ATOM      4  C   UNL     1     138.264 143.174  89.769  1.00  0.00     0.054 A 
ATOM      5  C   UNL     1     137.619 143.150  88.556  1.00  0.00     0.058 A 
ATOM      6  C   UNL     1     136.765 144.199  88.201  1.00  0.00     0.022 A 
ATOM      7  C   UNL     1     136.564 145.277  89.080  1.00  0.00     0.002 A 
ATOM      8  C   UNL     1     137.218 145.303  90.312  1.00  0.00     0.010 A 
ATOM      9  S   UNL     1     139.427 142.099  90.662  1.00  0.00    -0.128 S 
ATOM     10  Cl  UNL     1     137.872 141.787  87.435  1.00  0.00    -0.083 Cl
ENDROOT
BRANCH   1  11
ATOM     11  C   UNL     1     140.433 142.809  93.337  1.00  0.00     0.261 C 
ATOM     12  N   UNL     1     139.964 143.208  94.650  1.00  0.00    -0.347 N 
ATOM     13  O   UNL     1     141.482 142.271  93.225  1.00  0.00    -0.268 OA
ATOM     14  H   UNL     1     139.095 143.657  94.751  1.00  0.00     0.164 HD
BRANCH  12  15
ATOM     15  C   UNL     1     140.805 142.934  95.838  1.00  0.00     0.099 C 
ATOM     16  C   UNL     1     140.314 141.749  96.535  1.00  0.00     0.015 C 
ATOM     17  C   UNL     1     140.743 144.126  96.812  1.00  0.00     0.109 C 
ATOM     18  C   UNL     1     141.121 141.539  97.705  1.00  0.00     0.021 C 
ATOM     19  C   UNL     1     138.941 142.004  96.963  1.00  0.00     0.021 C 
ATOM     20  N   UNL     1     140.272 143.731  98.067  1.00  0.00    -0.301 NA
ATOM     21  C   UNL     1     141.079 142.746  98.594  1.00  0.00     0.085 C 
ATOM     22  C   UNL     1     138.950 143.236  97.945  1.00  0.00     0.085 C 
ENDBRANCH  12  15
ENDBRANCH   1  11
TORSDOF 2
ENDMDL
MODEL 18
REMARK VINA RESULT:    -5.879      5.110      8.086
REMARK INTER + INTRA:          -6.883
REMARK INTER:                  -6.566
REMARK INTRA:                  -0.317
REMARK UNBOUND:                -0.316
REMARK SMILES O=C(N[C@H]1CN2CCC1CC2)c1cc2cccc(Cl)c2s1
REMARK SMILES IDX 12 1 13 2 14 3 20 4 18 5 17 6 16 7 15 8 21 9 19 10 2 11 3 12
REMARK SMILES IDX 1 13 4 15 9 16 5 17 8 18 10 19 6 20 7 21 11 22
REMARK H PARENT 3 14
ROOT
ATOM      1  C   UNL     1     146.466 138.659  90.821  1.00  0.00     0.093 A 
ATOM      2  C   UNL     1     146.983 137.502  91.295  1.00  0.00     0.034 A 
ATOM      3  C   UNL     1     146.120 136.374  91.497  1.00  0.00    -0.005 A 
ATOM      4  C   UNL     1     144.750 136.637  91.147  1.00  0.00     0.054 A 
ATOM      5  C   UNL     1     143.808 135.647  91.287  1.00  0.00     0.058 A 
ATOM      6  C   UNL     1     144.186 134.390  91.769  1.00  0.00     0.022 A 
ATOM      7  C   UNL     1     145.525 134.136  92.110  1.00  0.00     0.002 A 
ATOM      8  C   UNL     1     146.483 135.140  91.969  1.00  0.00     0.010 A 
ATOM      9  S   UNL     1     144.766 138.367  90.588  1.00  0.00    -0.128 S 
ATOM     10  Cl  UNL     1     142.107 135.963  90.857  1.00  0.00    -0.083 Cl
ENDROOT
BRANCH   1  11
ATOM     11  C   UNL     1     147.251 139.948  90.554  1.00  0.00     0.261 C 
ATOM     12  N   UNL     1     148.098 140.067  89.383  1.00  0.00    -0.347 N 
ATOM     13  O   UNL     1     147.166 140.853  91.313  1.00  0.00    -0.268 OA
ATOM     14  H   UNL     1     148.176 139.319  88.749  1.00  0.00     0.164 HD
BRANCH  12  15
ATOM     15  C   UNL     1     148.845 141.324  89.150  1.00  0.00     0.099 C 
ATOM     16  C   UNL     1     148.427 141.927  87.887  1.00  0.00     0.015 C 
ATOM     17  C   UNL     1     150.356 141.029  89.065  1.00  0.00     0.109 C 
ATOM     18  C   UNL     1     149.202 143.117  87.670  1.00  0.00     0.021 C 
ATOM     19  C   UNL     1     148.717 140.985  86.810  1.00  0.00     0.021 C 
ATOM     20  N   UNL     1     150.885 141.444  87.840  1.00  0.00    -0.301 NA
ATOM     21  C   UNL     1     150.667 142.792  87.655  1.00  0.00     0.085 C 
ATOM     22  C   UNL     1     150.270 140.723  86.787  1.00  0.00     0.085 C 
ENDBRANCH  12  15
ENDBRANCH   1  11
TORSDOF 2
ENDMDL
MODEL 19
REMARK VINA RESULT:    -5.773      5.393      9.099
REMARK INTER + INTRA:          -6.765
REMARK INTER:                  -6.463
REMARK INTRA:                  -0.302
REMARK UNBOUND:                -0.316
REMARK SMILES O=C(N[C@H]1CN2CCC1CC2)c1cc2cccc(Cl)c2s1
REMARK SMILES IDX 12 1 13 2 14 3 20 4 18 5 17 6 16 7 15 8 21 9 19 10 2 11 3 12
REMARK SMILES IDX 1 13 4 15 9 16 5 17 8 18 10 19 6 20 7 21 11 22
REMARK H PARENT 3 14
ROOT
ATOM      1  C   UNL     1     146.787 138.805  91.599  1.00  0.00     0.093 A 
ATOM      2  C   UNL     1     147.265 137.578  91.913  1.00  0.00     0.034 A 
ATOM      3  C   UNL     1     146.380 136.449  91.889  1.00  0.00    -0.005 A 
ATOM      4  C   UNL     1     145.035 136.789  91.512  1.00  0.00     0.054 A 
ATOM      5  C   UNL     1     144.076 135.806  91.445  1.00  0.00     0.058 A 
ATOM      6  C   UNL     1     144.415 134.483  91.742  1.00  0.00     0.022 A 
ATOM      7  C   UNL     1     145.730 134.154  92.111  1.00  0.00     0.002 A 
ATOM      8  C   UNL     1     146.705 135.150  92.180  1.00  0.00     0.010 A 
ATOM      9  S   UNL     1     145.099 138.585  91.233  1.00  0.00    -0.128 S 
ATOM     10  Cl  UNL     1     142.405 136.218  90.980  1.00  0.00    -0.083 Cl
ENDROOT
BRANCH   1  11
ATOM     11  C   UNL     1     147.598 140.105  91.580  1.00  0.00     0.261 C 
ATOM     12  N   UNL     1     149.034 140.081  91.777  1.00  0.00    -0.347 N 
ATOM     13  O   UNL     1     147.045 141.138  91.406  1.00  0.00    -0.268 OA
ATOM     14  H   UNL     1     149.501 139.228  91.925  1.00  0.00     0.164 HD
BRANCH  12  15
ATOM     15  C   UNL     1     149.794 141.352  91.755  1.00  0.00     0.099 C 
ATOM     16  C   UNL     1     151.140 141.121  91.240  1.00  0.00     0.015 C 
ATOM     17  C   UNL     1     149.914 141.918  93.183  1.00  0.00     0.109 C 
ATOM     18  C   UNL     1     151.863 142.362  91.275  1.00  0.00     0.021 C 
ATOM     19  C   UNL     1     151.813 140.172  92.124  1.00  0.00     0.021 C 
ATOM     20  N   UNL     1     151.252 142.072  93.556  1.00  0.00    -0.301 NA
ATOM     21  C   UNL     1     151.903 142.905  92.672  1.00  0.00     0.085 C 
ATOM     22  C   UNL     1     151.893 140.808  93.564  1.00  0.00     0.085 C 
ENDBRANCH  12  15
ENDBRANCH   1  11
TORSDOF 2
ENDMDL
MODEL 20
REMARK VINA RESULT:    -5.730      5.005      9.683
REMARK INTER + INTRA:          -6.716
REMARK INTER:                  -6.428
REMARK INTRA:                  -0.287
REMARK UNBOUND:                -0.316
REMARK SMILES O=C(N[C@H]1CN2CCC1CC2)c1cc2cccc(Cl)c2s1
REMARK SMILES IDX 12 1 13 2 14 3 20 4 18 5 17 6 16 7 15 8 21 9 19 10 2 11 3 12
REMARK SMILES IDX 1 13 4 15 9 16 5 17 8 18 10 19 6 20 7 21 11 22
REMARK H PARENT 3 14
ROOT
ATOM      1  C   UNL     1     147.418 136.788  91.674  1.00  0.00     0.093 A 
ATOM      2  C   UNL     1     146.536 135.771  91.536  1.00  0.00     0.034 A 
ATOM      3  C   UNL     1     145.141 136.065  91.373  1.00  0.00    -0.005 A 
ATOM      4  C   UNL     1     144.854 137.475  91.374  1.00  0.00     0.054 A 
ATOM      5  C   UNL     1     143.557 137.906  91.225  1.00  0.00     0.058 A 
ATOM      6  C   UNL     1     142.527 136.974  91.072  1.00  0.00     0.022 A 
ATOM      7  C   UNL     1     142.811 135.598  91.072  1.00  0.00     0.002 A 
ATOM      8  C   UNL     1     144.126 135.157  91.223  1.00  0.00     0.010 A 
ATOM      9  S   UNL     1     146.482 138.253  91.597  1.00  0.00    -0.128 S 
ATOM     10  Cl  UNL     1     143.190 139.651  91.226  1.00  0.00    -0.083 Cl
ENDROOT
BRANCH   1  11
ATOM     11  C   UNL     1     148.933 136.641  91.859  1.00  0.00     0.261 C 
ATOM     12  N   UNL     1     149.819 137.760  91.604  1.00  0.00    -0.347 N 
ATOM     13  O   UNL     1     149.382 135.603  92.211  1.00  0.00    -0.268 OA
ATOM     14  H   UNL     1     149.453 138.625  91.310  1.00  0.00     0.164 HD
BRANCH  12  15
ATOM     15  C   UNL     1     151.278 137.591  91.791  1.00  0.00     0.099 C 
ATOM     16  C   UNL     1     151.872 138.843  92.251  1.00  0.00     0.015 C 
ATOM     17  C   UNL     1     151.938 137.209  90.451  1.00  0.00     0.109 C 
ATOM     18  C   UNL     1     153.290 138.657  92.377  1.00  0.00     0.021 C 
ATOM     19  C   UNL     1     151.629 139.867  91.238  1.00  0.00     0.021 C 
ATOM     20  N   UNL     1     152.916 138.138  90.086  1.00  0.00    -0.301 NA
ATOM     21  C   UNL     1     153.880 138.228  91.066  1.00  0.00     0.085 C 
ATOM     22  C   UNL     1     152.320 139.409  89.897  1.00  0.00     0.085 C 
ENDBRANCH  12  15
ENDBRANCH   1  11
TORSDOF 2
ENDMDL
