MODEL 1
REMARK VINA RESULT:    -7.514      0.000      0.000
REMARK INTER + INTRA:          -8.723
REMARK INTER:                  -8.393
REMARK INTRA:                  -0.330
REMARK UNBOUND:                -0.330
REMARK SMILES O=C(N[C@H]1CN2CCC1CC2)c1cc2cccc(Cl)c2s1
REMARK SMILES IDX 12 1 13 2 14 3 20 4 18 5 17 6 16 7 15 8 21 9 19 10 2 11 3 12
REMARK SMILES IDX 1 13 4 15 9 16 5 17 8 18 10 19 6 20 7 21 11 22
REMARK H PARENT 3 14
ROOT
ATOM      1  C   UNL     1     143.776 139.898  90.107  1.00  0.00     0.093 A 
ATOM      2  C   UNL     1     144.334 140.173  88.905  1.00  0.00     0.034 A 
ATOM      3  C   UNL     1     145.614 140.819  88.853  1.00  0.00    -0.005 A 
ATOM      4  C   UNL     1     146.161 141.100  90.153  1.00  0.00     0.054 A 
ATOM      5  C   UNL     1     147.385 141.717  90.257  1.00  0.00     0.058 A 
ATOM      6  C   UNL     1     148.090 142.067  89.102  1.00  0.00     0.022 A 
ATOM      7  C   UNL     1     147.551 141.792  87.833  1.00  0.00     0.002 A 
ATOM      8  C   UNL     1     146.309 141.166  87.724  1.00  0.00     0.010 A 
ATOM      9  S   UNL     1     144.902 140.471  91.303  1.00  0.00    -0.128 S 
ATOM     10  Cl  UNL     1     148.073 142.071  91.864  1.00  0.00    -0.083 Cl
ENDROOT
BRANCH   1  11
ATOM     11  C   UNL     1     142.421 139.217  90.331  1.00  0.00     0.261 C 
ATOM     12  N   UNL     1     141.192 139.862  89.910  1.00  0.00    -0.347 N 
ATOM     13  O   UNL     1     142.378 138.157  90.856  1.00  0.00    -0.268 OA
ATOM     14  H   UNL     1     141.219 140.745  89.475  1.00  0.00     0.164 HD
BRANCH  12  15
ATOM     15  C   UNL     1     139.897 139.183  90.139  1.00  0.00     0.099 C 
ATOM     16  C   UNL     1     139.458 138.517  88.916  1.00  0.00     0.015 C 
ATOM     17  C   UNL     1     138.824 140.216  90.536  1.00  0.00     0.109 C 
ATOM     18  C   UNL     1     138.180 137.908  89.160  1.00  0.00     0.021 C 
ATOM     19  C   UNL     1     139.296 139.528  87.875  1.00  0.00     0.021 C 
ATOM     20  N   UNL     1     137.748 140.197  89.645  1.00  0.00    -0.301 NA
ATOM     21  C   UNL     1     137.185 138.940  89.601  1.00  0.00     0.085 C 
ATOM     22  C   UNL     1     138.196 140.553  88.349  1.00  0.00     0.085 C 
ENDBRANCH  12  15
ENDBRANCH   1  11
TORSDOF 2
ENDMDL
MODEL 2
REMARK VINA RESULT:    -7.510      2.774      3.540
REMARK INTER + INTRA:          -8.718
REMARK INTER:                  -8.400
REMARK INTRA:                  -0.318
REMARK UNBOUND:                -0.330
REMARK SMILES O=C(N[C@H]1CN2CCC1CC2)c1cc2cccc(Cl)c2s1
REMARK SMILES IDX 12 1 13 2 14 3 20 4 18 5 17 6 16 7 15 8 21 9 19 10 2 11 3 12
REMARK SMILES IDX 1 13 4 15 9 16 5 17 8 18 10 19 6 20 7 21 11 22
REMARK H PARENT 3 14
ROOT
ATOM      1  C   UNL     1     143.560 138.625  90.868  1.00  0.00     0.093 A 
ATOM      2  C   UNL     1     143.813 137.324  91.139  1.00  0.00     0.034 A 
ATOM      3  C   UNL     1     145.172 136.874  91.233  1.00  0.00    -0.005 A 
ATOM      4  C   UNL     1     146.133 137.922  91.018  1.00  0.00     0.054 A 
ATOM      5  C   UNL     1     147.477 137.637  91.078  1.00  0.00     0.058 A 
ATOM      6  C   UNL     1     147.900 136.333  91.349  1.00  0.00     0.022 A 
ATOM      7  C   UNL     1     146.958 135.311  91.558  1.00  0.00     0.002 A 
ATOM      8  C   UNL     1     145.594 135.597  91.497  1.00  0.00     0.010 A 
ATOM      9  S   UNL     1     145.113 139.395  90.711  1.00  0.00    -0.128 S 
ATOM     10  Cl  UNL     1     148.677 138.929  90.812  1.00  0.00    -0.083 Cl
ENDROOT
BRANCH   1  11
ATOM     11  C   UNL     1     142.171 139.260  90.734  1.00  0.00     0.261 C 
ATOM     12  N   UNL     1     141.027 138.455  90.350  1.00  0.00    -0.347 N 
ATOM     13  O   UNL     1     142.033 140.417  90.943  1.00  0.00    -0.268 OA
ATOM     14  H   UNL     1     141.134 137.494  90.172  1.00  0.00     0.164 HD
BRANCH  12  15
ATOM     15  C   UNL     1     139.697 139.094  90.228  1.00  0.00     0.099 C 
ATOM     16  C   UNL     1     138.662 138.194  90.729  1.00  0.00     0.015 C 
ATOM     17  C   UNL     1     139.394 139.397  88.747  1.00  0.00     0.109 C 
ATOM     18  C   UNL     1     137.383 138.823  90.554  1.00  0.00     0.021 C 
ATOM     19  C   UNL     1     138.688 136.972  89.929  1.00  0.00     0.021 C 
ATOM     20  N   UNL     1     138.223 138.760  88.329  1.00  0.00    -0.301 NA
ATOM     21  C   UNL     1     137.157 139.155  89.108  1.00  0.00     0.085 C 
ATOM     22  C   UNL     1     138.382 137.356  88.431  1.00  0.00     0.085 C 
ENDBRANCH  12  15
ENDBRANCH   1  11
TORSDOF 2
ENDMDL
MODEL 3
REMARK VINA RESULT:    -7.377      1.858      2.158
REMARK INTER + INTRA:          -8.570
REMARK INTER:                  -8.259
REMARK INTRA:                  -0.310
REMARK UNBOUND:                -0.330
REMARK SMILES O=C(N[C@H]1CN2CCC1CC2)c1cc2cccc(Cl)c2s1
REMARK SMILES IDX 12 1 13 2 14 3 20 4 18 5 17 6 16 7 15 8 21 9 19 10 2 11 3 12
REMARK SMILES IDX 1 13 4 15 9 16 5 17 8 18 10 19 6 20 7 21 11 22
REMARK H PARENT 3 14
ROOT
ATOM      1  C   UNL     1     143.961 140.086  89.431  1.00  0.00     0.093 A 
ATOM      2  C   UNL     1     145.004 140.733  90.001  1.00  0.00     0.034 A 
ATOM      3  C   UNL     1     146.095 141.174  89.181  1.00  0.00    -0.005 A 
ATOM      4  C   UNL     1     145.924 140.855  87.789  1.00  0.00     0.054 A 
ATOM      5  C   UNL     1     146.891 141.217  86.883  1.00  0.00     0.058 A 
ATOM      6  C   UNL     1     148.035 141.894  87.318  1.00  0.00     0.022 A 
ATOM      7  C   UNL     1     148.199 142.203  88.679  1.00  0.00     0.002 A 
ATOM      8  C   UNL     1     147.218 141.836  89.601  1.00  0.00     0.010 A 
ATOM      9  S   UNL     1     144.322 139.998  87.730  1.00  0.00    -0.128 S 
ATOM     10  Cl  UNL     1     146.690 140.826  85.155  1.00  0.00    -0.083 Cl
ENDROOT
BRANCH   1  11
ATOM     11  C   UNL     1     142.726 139.553  90.166  1.00  0.00     0.261 C 
ATOM     12  N   UNL     1     141.397 139.766  89.626  1.00  0.00    -0.347 N 
ATOM     13  O   UNL     1     142.860 138.965  91.185  1.00  0.00    -0.268 OA
ATOM     14  H   UNL     1     141.278 140.256  88.781  1.00  0.00     0.164 HD
BRANCH  12  15
ATOM     15  C   UNL     1     140.221 139.241  90.356  1.00  0.00     0.099 C 
ATOM     16  C   UNL     1     139.588 138.175  89.584  1.00  0.00     0.015 C 
ATOM     17  C   UNL     1     139.187 140.364  90.564  1.00  0.00     0.109 C 
ATOM     18  C   UNL     1     138.428 137.721  90.298  1.00  0.00     0.021 C 
ATOM     19  C   UNL     1     139.154 138.731  88.305  1.00  0.00     0.021 C 
ATOM     20  N   UNL     1     137.957 140.032  89.992  1.00  0.00    -0.301 NA
ATOM     21  C   UNL     1     137.478 138.858  90.531  1.00  0.00     0.085 C 
ATOM     22  C   UNL     1     138.110 139.875  88.592  1.00  0.00     0.085 C 
ENDBRANCH  12  15
ENDBRANCH   1  11
TORSDOF 2
ENDMDL
MODEL 4
REMARK VINA RESULT:    -7.325      3.168      3.669
REMARK INTER + INTRA:          -8.511
REMARK INTER:                  -8.225
REMARK INTRA:                  -0.287
REMARK UNBOUND:                -0.330
REMARK SMILES O=C(N[C@H]1CN2CCC1CC2)c1cc2cccc(Cl)c2s1
REMARK SMILES IDX 12 1 13 2 14 3 20 4 18 5 17 6 16 7 15 8 21 9 19 10 2 11 3 12
REMARK SMILES IDX 1 13 4 15 9 16 5 17 8 18 10 19 6 20 7 21 11 22
REMARK H PARENT 3 14
ROOT
ATOM      1  C   UNL     1     143.550 138.275  90.731  1.00  0.00     0.093 A 
ATOM      2  C   UNL     1     144.761 138.777  90.395  1.00  0.00     0.034 A 
ATOM      3  C   UNL     1     145.930 137.958  90.545  1.00  0.00    -0.005 A 
ATOM      4  C   UNL     1     145.641 136.644  91.055  1.00  0.00     0.054 A 
ATOM      5  C   UNL     1     146.665 135.748  91.248  1.00  0.00     0.058 A 
ATOM      6  C   UNL     1     147.980 136.118  90.948  1.00  0.00     0.022 A 
ATOM      7  C   UNL     1     148.258 137.403  90.451  1.00  0.00     0.002 A 
ATOM      8  C   UNL     1     147.220 138.314  90.253  1.00  0.00     0.010 A 
ATOM      9  S   UNL     1     143.837 136.649  91.282  1.00  0.00    -0.128 S 
ATOM     10  Cl  UNL     1     146.319 134.118  91.881  1.00  0.00    -0.083 Cl
ENDROOT
BRANCH   1  11
ATOM     11  C   UNL     1     142.213 139.019  90.633  1.00  0.00     0.261 C 
ATOM     12  N   UNL     1     140.986 138.297  90.358  1.00  0.00    -0.347 N 
ATOM     13  O   UNL     1     142.184 140.194  90.780  1.00  0.00    -0.268 OA
ATOM     14  H   UNL     1     141.002 137.321  90.232  1.00  0.00     0.164 HD
BRANCH  12  15
ATOM     15  C   UNL     1     139.708 139.040  90.268  1.00  0.00     0.099 C 
ATOM     16  C   UNL     1     138.608 138.201  90.732  1.00  0.00     0.015 C 
ATOM     17  C   UNL     1     139.430 139.432  88.803  1.00  0.00     0.109 C 
ATOM     18  C   UNL     1     137.381 138.934  90.589  1.00  0.00     0.021 C 
ATOM     19  C   UNL     1     138.540 137.018  89.878  1.00  0.00     0.021 C 
ATOM     20  N   UNL     1     138.214 138.906  88.361  1.00  0.00    -0.301 NA
ATOM     21  C   UNL     1     137.182 139.346  89.160  1.00  0.00     0.085 C 
ATOM     22  C   UNL     1     138.265 137.491  88.400  1.00  0.00     0.085 C 
ENDBRANCH  12  15
ENDBRANCH   1  11
TORSDOF 2
ENDMDL
MODEL 5
REMARK VINA RESULT:    -6.542      4.338      8.200
REMARK INTER + INTRA:          -7.637
REMARK INTER:                  -7.374
REMARK INTRA:                  -0.263
REMARK UNBOUND:                -0.330
REMARK SMILES O=C(N[C@H]1CN2CCC1CC2)c1cc2cccc(Cl)c2s1
REMARK SMILES IDX 12 1 13 2 14 3 20 4 18 5 17 6 16 7 15 8 21 9 19 10 2 11 3 12
REMARK SMILES IDX 1 13 4 15 9 16 5 17 8 18 10 19 6 20 7 21 11 22
REMARK H PARENT 3 14
ROOT
ATOM      1  C   UNL     1     142.754 138.584  90.819  1.00  0.00     0.093 A 
ATOM      2  C   UNL     1     141.996 137.463  90.803  1.00  0.00     0.034 A 
ATOM      3  C   UNL     1     140.622 137.545  90.397  1.00  0.00    -0.005 A 
ATOM      4  C   UNL     1     140.215 138.877  90.038  1.00  0.00     0.054 A 
ATOM      5  C   UNL     1     138.924 139.108  89.627  1.00  0.00     0.058 A 
ATOM      6  C   UNL     1     138.015 138.047  89.559  1.00  0.00     0.022 A 
ATOM      7  C   UNL     1     138.417 136.747  89.911  1.00  0.00     0.002 A 
ATOM      8  C   UNL     1     139.727 136.511  90.329  1.00  0.00     0.010 A 
ATOM      9  S   UNL     1     141.714 139.875  90.287  1.00  0.00    -0.128 S 
ATOM     10  Cl  UNL     1     138.408 140.755  89.182  1.00  0.00    -0.083 Cl
ENDROOT
BRANCH   1  11
ATOM     11  C   UNL     1     144.229 138.664  91.227  1.00  0.00     0.261 C 
ATOM     12  N   UNL     1     145.004 137.455  91.431  1.00  0.00    -0.347 N 
ATOM     13  O   UNL     1     144.738 139.722  91.381  1.00  0.00    -0.268 OA
ATOM     14  H   UNL     1     144.587 136.572  91.308  1.00  0.00     0.164 HD
BRANCH  12  15
ATOM     15  C   UNL     1     146.427 137.561  91.826  1.00  0.00     0.099 C 
ATOM     16  C   UNL     1     147.264 137.719  90.640  1.00  0.00     0.015 C 
ATOM     17  C   UNL     1     146.866 136.277  92.557  1.00  0.00     0.109 C 
ATOM     18  C   UNL     1     148.639 137.771  91.055  1.00  0.00     0.021 C 
ATOM     19  C   UNL     1     147.084 136.545  89.790  1.00  0.00     0.021 C 
ATOM     20  N   UNL     1     147.938 135.663  91.904  1.00  0.00    -0.301 NA
ATOM     21  C   UNL     1     149.004 136.530  91.814  1.00  0.00     0.085 C 
ATOM     22  C   UNL     1     147.541 135.273  90.601  1.00  0.00     0.085 C 
ENDBRANCH  12  15
ENDBRANCH   1  11
TORSDOF 2
ENDMDL
MODEL 6
REMARK VINA RESULT:    -6.435      1.330      2.005
REMARK INTER + INTRA:          -7.517
REMARK INTER:                  -7.249
REMARK INTRA:                  -0.268
REMARK UNBOUND:                -0.330
REMARK SMILES O=C(N[C@H]1CN2CCC1CC2)c1cc2cccc(Cl)c2s1
REMARK SMILES IDX 12 1 13 2 14 3 20 4 18 5 17 6 16 7 15 8 21 9 19 10 2 11 3 12
REMARK SMILES IDX 1 13 4 15 9 16 5 17 8 18 10 19 6 20 7 21 11 22
REMARK H PARENT 3 14
ROOT
ATOM      1  C   UNL     1     143.626 139.834  90.659  1.00  0.00     0.093 A 
ATOM      2  C   UNL     1     144.281 140.195  91.787  1.00  0.00     0.034 A 
ATOM      3  C   UNL     1     145.555 140.847  91.686  1.00  0.00    -0.005 A 
ATOM      4  C   UNL     1     145.986 141.042  90.328  1.00  0.00     0.054 A 
ATOM      5  C   UNL     1     147.190 141.657  90.077  1.00  0.00     0.058 A 
ATOM      6  C   UNL     1     147.987 142.089  91.142  1.00  0.00     0.022 A 
ATOM      7  C   UNL     1     147.562 141.895  92.467  1.00  0.00     0.002 A 
ATOM      8  C   UNL     1     146.341 141.272  92.725  1.00  0.00     0.010 A 
ATOM      9  S   UNL     1     144.641 140.329  89.334  1.00  0.00    -0.128 S 
ATOM     10  Cl  UNL     1     147.735 141.903  88.397  1.00  0.00    -0.083 Cl
ENDROOT
BRANCH   1  11
ATOM     11  C   UNL     1     142.266 139.131  90.598  1.00  0.00     0.261 C 
ATOM     12  N   UNL     1     141.063 139.878  90.282  1.00  0.00    -0.347 N 
ATOM     13  O   UNL     1     142.196 137.969  90.814  1.00  0.00    -0.268 OA
ATOM     14  H   UNL     1     141.112 140.845  90.104  1.00  0.00     0.164 HD
BRANCH  12  15
ATOM     15  C   UNL     1     139.762 139.175  90.230  1.00  0.00     0.099 C 
ATOM     16  C   UNL     1     139.530 138.651  88.887  1.00  0.00     0.015 C 
ATOM     17  C   UNL     1     138.621 140.155  90.569  1.00  0.00     0.109 C 
ATOM     18  C   UNL     1     138.241 138.017  88.860  1.00  0.00     0.021 C 
ATOM     19  C   UNL     1     139.510 139.774  87.953  1.00  0.00     0.021 C 
ATOM     20  N   UNL     1     137.696 140.234  89.525  1.00  0.00    -0.301 NA
ATOM     21  C   UNL     1     137.170 138.990  89.254  1.00  0.00     0.085 C 
ATOM     22  C   UNL     1     138.331 140.737  88.362  1.00  0.00     0.085 C 
ENDBRANCH  12  15
ENDBRANCH   1  11
TORSDOF 2
ENDMDL
MODEL 7
REMARK VINA RESULT:    -6.386      4.188      8.183
REMARK INTER + INTRA:          -7.463
REMARK INTER:                  -7.155
REMARK INTRA:                  -0.308
REMARK UNBOUND:                -0.330
REMARK SMILES O=C(N[C@H]1CN2CCC1CC2)c1cc2cccc(Cl)c2s1
REMARK SMILES IDX 12 1 13 2 14 3 20 4 18 5 17 6 16 7 15 8 21 9 19 10 2 11 3 12
REMARK SMILES IDX 1 13 4 15 9 16 5 17 8 18 10 19 6 20 7 21 11 22
REMARK H PARENT 3 14
ROOT
ATOM      1  C   UNL     1     142.599 138.786  90.500  1.00  0.00     0.093 A 
ATOM      2  C   UNL     1     141.615 139.667  90.204  1.00  0.00     0.034 A 
ATOM      3  C   UNL     1     140.257 139.208  90.127  1.00  0.00    -0.005 A 
ATOM      4  C   UNL     1     140.117 137.801  90.391  1.00  0.00     0.054 A 
ATOM      5  C   UNL     1     138.872 137.222  90.353  1.00  0.00     0.058 A 
ATOM      6  C   UNL     1     137.749 138.002  90.059  1.00  0.00     0.022 A 
ATOM      7  C   UNL     1     137.891 139.376  89.801  1.00  0.00     0.002 A 
ATOM      8  C   UNL     1     139.154 139.967  89.838  1.00  0.00     0.010 A 
ATOM      9  S   UNL     1     141.818 137.245  90.712  1.00  0.00    -0.128 S 
ATOM     10  Cl  UNL     1     138.687 135.479  90.678  1.00  0.00    -0.083 Cl
ENDROOT
BRANCH   1  11
ATOM     11  C   UNL     1     144.091 139.115  90.617  1.00  0.00     0.261 C 
ATOM     12  N   UNL     1     145.059 138.068  90.882  1.00  0.00    -0.347 N 
ATOM     13  O   UNL     1     144.456 140.235  90.493  1.00  0.00    -0.268 OA
ATOM     14  H   UNL     1     144.764 137.135  90.988  1.00  0.00     0.164 HD
BRANCH  12  15
ATOM     15  C   UNL     1     146.495 138.414  90.990  1.00  0.00     0.099 C 
ATOM     16  C   UNL     1     147.172 138.138  89.727  1.00  0.00     0.015 C 
ATOM     17  C   UNL     1     147.159 137.561  92.089  1.00  0.00     0.109 C 
ATOM     18  C   UNL     1     148.568 138.440  89.881  1.00  0.00     0.021 C 
ATOM     19  C   UNL     1     147.039 136.713  89.435  1.00  0.00     0.021 C 
ATOM     20  N   UNL     1     148.217 136.807  91.574  1.00  0.00    -0.301 NA
ATOM     21  C   UNL     1     149.158 137.633  90.999  1.00  0.00     0.085 C 
ATOM     22  C   UNL     1     147.728 135.904  90.598  1.00  0.00     0.085 C 
ENDBRANCH  12  15
ENDBRANCH   1  11
TORSDOF 2
ENDMDL
MODEL 8
REMARK VINA RESULT:    -6.323      5.213      6.540
REMARK INTER + INTRA:          -7.392
REMARK INTER:                  -7.070
REMARK INTRA:                  -0.322
REMARK UNBOUND:                -0.330
REMARK SMILES O=C(N[C@H]1CN2CCC1CC2)c1cc2cccc(Cl)c2s1
REMARK SMILES IDX 12 1 13 2 14 3 20 4 18 5 17 6 16 7 15 8 21 9 19 10 2 11 3 12
REMARK SMILES IDX 1 13 4 15 9 16 5 17 8 18 10 19 6 20 7 21 11 22
REMARK H PARENT 3 14
ROOT
ATOM      1  C   UNL     1     144.516 139.663  92.873  1.00  0.00     0.093 A 
ATOM      2  C   UNL     1     143.785 138.561  92.586  1.00  0.00     0.034 A 
ATOM      3  C   UNL     1     144.455 137.330  92.279  1.00  0.00    -0.005 A 
ATOM      4  C   UNL     1     145.889 137.437  92.323  1.00  0.00     0.054 A 
ATOM      5  C   UNL     1     146.663 136.335  92.052  1.00  0.00     0.058 A 
ATOM      6  C   UNL     1     146.054 135.117  91.735  1.00  0.00     0.022 A 
ATOM      7  C   UNL     1     144.653 135.016  91.693  1.00  0.00     0.002 A 
ATOM      8  C   UNL     1     143.864 136.134  91.968  1.00  0.00     0.010 A 
ATOM      9  S   UNL     1     146.184 139.175  92.768  1.00  0.00    -0.128 S 
ATOM     10  Cl  UNL     1     148.441 136.458  92.103  1.00  0.00    -0.083 Cl
ENDROOT
BRANCH   1  11
ATOM     11  C   UNL     1     143.954 141.047  93.218  1.00  0.00     0.261 C 
ATOM     12  N   UNL     1     142.892 141.189  94.194  1.00  0.00    -0.347 N 
ATOM     13  O   UNL     1     144.391 142.007  92.679  1.00  0.00    -0.268 OA
ATOM     14  H   UNL     1     142.522 140.396  94.644  1.00  0.00     0.164 HD
BRANCH  12  15
ATOM     15  C   UNL     1     142.367 142.538  94.508  1.00  0.00     0.099 C 
ATOM     16  C   UNL     1     142.561 142.833  95.925  1.00  0.00     0.015 C 
ATOM     17  C   UNL     1     140.857 142.598  94.206  1.00  0.00     0.109 C 
ATOM     18  C   UNL     1     142.001 144.125  96.204  1.00  0.00     0.021 C 
ATOM     19  C   UNL     1     141.831 141.836  96.705  1.00  0.00     0.021 C 
ATOM     20  N   UNL     1     140.126 142.940  95.346  1.00  0.00    -0.301 NA
ATOM     21  C   UNL     1     140.546 144.156  95.839  1.00  0.00     0.085 C 
ATOM     22  C   UNL     1     140.302 141.947  96.341  1.00  0.00     0.085 C 
ENDBRANCH  12  15
ENDBRANCH   1  11
TORSDOF 2
ENDMDL
MODEL 9
REMARK VINA RESULT:    -6.302      4.911      7.386
REMARK INTER + INTRA:          -7.368
REMARK INTER:                  -7.062
REMARK INTRA:                  -0.306
REMARK UNBOUND:                -0.330
REMARK SMILES O=C(N[C@H]1CN2CCC1CC2)c1cc2cccc(Cl)c2s1
REMARK SMILES IDX 12 1 13 2 14 3 20 4 18 5 17 6 16 7 15 8 21 9 19 10 2 11 3 12
REMARK SMILES IDX 1 13 4 15 9 16 5 17 8 18 10 19 6 20 7 21 11 22
REMARK H PARENT 3 14
ROOT
ATOM      1  C   UNL     1     144.005 140.779  93.062  1.00  0.00     0.093 A 
ATOM      2  C   UNL     1     142.915 141.177  92.367  1.00  0.00     0.034 A 
ATOM      3  C   UNL     1     141.863 141.880  93.045  1.00  0.00    -0.005 A 
ATOM      4  C   UNL     1     142.125 142.079  94.445  1.00  0.00     0.054 A 
ATOM      5  C   UNL     1     141.205 142.739  95.223  1.00  0.00     0.058 A 
ATOM      6  C   UNL     1     140.021 143.214  94.650  1.00  0.00     0.022 A 
ATOM      7  C   UNL     1     139.768 143.016  93.282  1.00  0.00     0.002 A 
ATOM      8  C   UNL     1     140.701 142.346  92.490  1.00  0.00     0.010 A 
ATOM      9  S   UNL     1     143.749 141.302  94.702  1.00  0.00    -0.128 S 
ATOM     10  Cl  UNL     1     141.519 142.991  96.960  1.00  0.00    -0.083 Cl
ENDROOT
BRANCH   1  11
ATOM     11  C   UNL     1     145.207 140.020  92.487  1.00  0.00     0.261 C 
ATOM     12  N   UNL     1     145.030 138.724  91.861  1.00  0.00    -0.347 N 
ATOM     13  O   UNL     1     146.289 140.497  92.558  1.00  0.00    -0.268 OA
ATOM     14  H   UNL     1     144.135 138.320  91.800  1.00  0.00     0.164 HD
BRANCH  12  15
ATOM     15  C   UNL     1     146.208 138.013  91.314  1.00  0.00     0.099 C 
ATOM     16  C   UNL     1     145.831 137.270  90.115  1.00  0.00     0.015 C 
ATOM     17  C   UNL     1     146.746 137.010  92.354  1.00  0.00     0.109 C 
ATOM     18  C   UNL     1     146.983 136.557  89.638  1.00  0.00     0.021 C 
ATOM     19  C   UNL     1     144.806 136.296  90.482  1.00  0.00     0.021 C 
ATOM     20  N   UNL     1     146.746 135.708  91.848  1.00  0.00    -0.301 NA
ATOM     21  C   UNL     1     147.508 135.638  90.702  1.00  0.00     0.085 C 
ATOM     22  C   UNL     1     145.418 135.312  91.550  1.00  0.00     0.085 C 
ENDBRANCH  12  15
ENDBRANCH   1  11
TORSDOF 2
ENDMDL
MODEL 10
REMARK VINA RESULT:    -6.291      2.061      2.638
REMARK INTER + INTRA:          -7.357
REMARK INTER:                  -7.046
REMARK INTRA:                  -0.311
REMARK UNBOUND:                -0.330
REMARK SMILES O=C(N[C@H]1CN2CCC1CC2)c1cc2cccc(Cl)c2s1
REMARK SMILES IDX 12 1 13 2 14 3 20 4 18 5 17 6 16 7 15 8 21 9 19 10 2 11 3 12
REMARK SMILES IDX 1 13 4 15 9 16 5 17 8 18 10 19 6 20 7 21 11 22
REMARK H PARENT 3 14
ROOT
ATOM      1  C   UNL     1     143.601 139.881  90.344  1.00  0.00     0.093 A 
ATOM      2  C   UNL     1     144.515 139.629  91.309  1.00  0.00     0.034 A 
ATOM      3  C   UNL     1     145.893 139.451  90.948  1.00  0.00    -0.005 A 
ATOM      4  C   UNL     1     146.129 139.575  89.534  1.00  0.00     0.054 A 
ATOM      5  C   UNL     1     147.403 139.430  89.041  1.00  0.00     0.058 A 
ATOM      6  C   UNL     1     148.462 139.164  89.915  1.00  0.00     0.022 A 
ATOM      7  C   UNL     1     148.227 139.043  91.296  1.00  0.00     0.002 A 
ATOM      8  C   UNL     1     146.934 139.190  91.798  1.00  0.00     0.010 A 
ATOM      9  S   UNL     1     144.482 139.913  88.843  1.00  0.00    -0.128 S 
ATOM     10  Cl  UNL     1     147.707 139.580  87.291  1.00  0.00    -0.083 Cl
ENDROOT
BRANCH   1  11
ATOM     11  C   UNL     1     142.099 140.092  90.565  1.00  0.00     0.261 C 
ATOM     12  N   UNL     1     141.130 139.484  89.674  1.00  0.00    -0.347 N 
ATOM     13  O   UNL     1     141.728 140.759  91.471  1.00  0.00    -0.268 OA
ATOM     14  H   UNL     1     141.430 138.930  88.919  1.00  0.00     0.164 HD
BRANCH  12  15
ATOM     15  C   UNL     1     139.685 139.704  89.911  1.00  0.00     0.099 C 
ATOM     16  C   UNL     1     139.115 138.563  90.622  1.00  0.00     0.015 C 
ATOM     17  C   UNL     1     138.948 139.848  88.564  1.00  0.00     0.109 C 
ATOM     18  C   UNL     1     137.707 138.788  90.794  1.00  0.00     0.021 C 
ATOM     19  C   UNL     1     139.294 137.371  89.797  1.00  0.00     0.021 C 
ATOM     20  N   UNL     1     137.947 138.883  88.429  1.00  0.00    -0.301 NA
ATOM     21  C   UNL     1     137.042 138.983  89.463  1.00  0.00     0.085 C 
ATOM     22  C   UNL     1     138.527 137.591  88.438  1.00  0.00     0.085 C 
ENDBRANCH  12  15
ENDBRANCH   1  11
TORSDOF 2
ENDMDL
MODEL 11
REMARK VINA RESULT:    -6.264      3.395      7.863
REMARK INTER + INTRA:          -7.326
REMARK INTER:                  -7.015
REMARK INTRA:                  -0.312
REMARK UNBOUND:                -0.330
REMARK SMILES O=C(N[C@H]1CN2CCC1CC2)c1cc2cccc(Cl)c2s1
REMARK SMILES IDX 12 1 13 2 14 3 20 4 18 5 17 6 16 7 15 8 21 9 19 10 2 11 3 12
REMARK SMILES IDX 1 13 4 15 9 16 5 17 8 18 10 19 6 20 7 21 11 22
REMARK H PARENT 3 14
ROOT
ATOM      1  C   UNL     1     142.577 138.987  90.473  1.00  0.00     0.093 A 
ATOM      2  C   UNL     1     141.512 139.794  90.258  1.00  0.00     0.034 A 
ATOM      3  C   UNL     1     140.195 139.226  90.214  1.00  0.00    -0.005 A 
ATOM      4  C   UNL     1     140.183 137.802  90.417  1.00  0.00     0.054 A 
ATOM      5  C   UNL     1     138.989 137.122  90.401  1.00  0.00     0.058 A 
ATOM      6  C   UNL     1     137.794 137.817  90.189  1.00  0.00     0.022 A 
ATOM      7  C   UNL     1     137.810 139.208  89.990  1.00  0.00     0.002 A 
ATOM      8  C   UNL     1     139.021 139.901  90.005  1.00  0.00     0.010 A 
ATOM      9  S   UNL     1     141.936 137.378  90.643  1.00  0.00    -0.128 S 
ATOM     10  Cl  UNL     1     138.963 135.357  90.651  1.00  0.00    -0.083 Cl
ENDROOT
BRANCH   1  11
ATOM     11  C   UNL     1     144.041 139.436  90.547  1.00  0.00     0.261 C 
ATOM     12  N   UNL     1     144.760 139.807  89.343  1.00  0.00    -0.347 N 
ATOM     13  O   UNL     1     144.589 139.477  91.595  1.00  0.00    -0.268 OA
ATOM     14  H   UNL     1     144.312 139.774  88.467  1.00  0.00     0.164 HD
BRANCH  12  15
ATOM     15  C   UNL     1     146.173 140.237  89.442  1.00  0.00     0.099 C 
ATOM     16  C   UNL     1     146.408 141.388  88.576  1.00  0.00     0.015 C 
ATOM     17  C   UNL     1     147.103 139.094  88.987  1.00  0.00     0.109 C 
ATOM     18  C   UNL     1     147.795 141.749  88.660  1.00  0.00     0.021 C 
ATOM     19  C   UNL     1     146.117 140.994  87.199  1.00  0.00     0.021 C 
ATOM     20  N   UNL     1     147.908 139.493  87.916  1.00  0.00    -0.301 NA
ATOM     21  C   UNL     1     148.663 140.590  88.267  1.00  0.00     0.085 C 
ATOM     22  C   UNL     1     147.093 139.821  86.805  1.00  0.00     0.085 C 
ENDBRANCH  12  15
ENDBRANCH   1  11
TORSDOF 2
ENDMDL
MODEL 12
REMARK VINA RESULT:    -6.155      5.392      7.729
REMARK INTER + INTRA:          -7.204
REMARK INTER:                  -6.939
REMARK INTRA:                  -0.266
REMARK UNBOUND:                -0.330
REMARK SMILES O=C(N[C@H]1CN2CCC1CC2)c1cc2cccc(Cl)c2s1
REMARK SMILES IDX 12 1 13 2 14 3 20 4 18 5 17 6 16 7 15 8 21 9 19 10 2 11 3 12
REMARK SMILES IDX 1 13 4 15 9 16 5 17 8 18 10 19 6 20 7 21 11 22
REMARK H PARENT 3 14
ROOT
ATOM      1  C   UNL     1     143.835 140.586  93.530  1.00  0.00     0.093 A 
ATOM      2  C   UNL     1     143.544 140.697  94.847  1.00  0.00     0.034 A 
ATOM      3  C   UNL     1     142.387 141.441  95.255  1.00  0.00    -0.005 A 
ATOM      4  C   UNL     1     141.651 141.995  94.150  1.00  0.00     0.054 A 
ATOM      5  C   UNL     1     140.516 142.733  94.389  1.00  0.00     0.058 A 
ATOM      6  C   UNL     1     140.084 142.939  95.703  1.00  0.00     0.022 A 
ATOM      7  C   UNL     1     140.806 142.396  96.779  1.00  0.00     0.002 A 
ATOM      8  C   UNL     1     141.959 141.648  96.539  1.00  0.00     0.010 A 
ATOM      9  S   UNL     1     142.590 141.463  92.687  1.00  0.00    -0.128 S 
ATOM     10  Cl  UNL     1     139.597 143.426  93.028  1.00  0.00    -0.083 Cl
ENDROOT
BRANCH   1  11
ATOM     11  C   UNL     1     145.030 139.832  92.936  1.00  0.00     0.261 C 
ATOM     12  N   UNL     1     144.823 138.670  92.094  1.00  0.00    -0.347 N 
ATOM     13  O   UNL     1     146.130 140.201  93.170  1.00  0.00    -0.268 OA
ATOM     14  H   UNL     1     143.912 138.355  91.897  1.00  0.00     0.164 HD
BRANCH  12  15
ATOM     15  C   UNL     1     145.995 137.959  91.533  1.00  0.00     0.099 C 
ATOM     16  C   UNL     1     145.625 137.289  90.290  1.00  0.00     0.015 C 
ATOM     17  C   UNL     1     146.487 136.891  92.529  1.00  0.00     0.109 C 
ATOM     18  C   UNL     1     146.770 136.574  89.798  1.00  0.00     0.021 C 
ATOM     19  C   UNL     1     144.570 136.323  90.585  1.00  0.00     0.021 C 
ATOM     20  N   UNL     1     146.467 135.617  91.955  1.00  0.00    -0.301 NA
ATOM     21  C   UNL     1     147.251 135.588  90.822  1.00  0.00     0.085 C 
ATOM     22  C   UNL     1     145.137 135.270  91.612  1.00  0.00     0.085 C 
ENDBRANCH  12  15
ENDBRANCH   1  11
TORSDOF 2
ENDMDL
MODEL 13
REMARK VINA RESULT:    -6.073      4.785      5.865
REMARK INTER + INTRA:          -7.113
REMARK INTER:                  -6.800
REMARK INTRA:                  -0.314
REMARK UNBOUND:                -0.330
REMARK SMILES O=C(N[C@H]1CN2CCC1CC2)c1cc2cccc(Cl)c2s1
REMARK SMILES IDX 12 1 13 2 14 3 20 4 18 5 17 6 16 7 15 8 21 9 19 10 2 11 3 12
REMARK SMILES IDX 1 13 4 15 9 16 5 17 8 18 10 19 6 20 7 21 11 22
REMARK H PARENT 3 14
ROOT
ATOM      1  C   UNL     1     144.972 141.183  92.291  1.00  0.00     0.093 A 
ATOM      2  C   UNL     1     144.253 140.545  91.339  1.00  0.00     0.034 A 
ATOM      3  C   UNL     1     144.725 140.542  89.983  1.00  0.00    -0.005 A 
ATOM      4  C   UNL     1     145.964 141.252  89.811  1.00  0.00     0.054 A 
ATOM      5  C   UNL     1     146.536 141.332  88.565  1.00  0.00     0.058 A 
ATOM      6  C   UNL     1     145.912 140.722  87.472  1.00  0.00     0.022 A 
ATOM      7  C   UNL     1     144.701 140.029  87.644  1.00  0.00     0.002 A 
ATOM      8  C   UNL     1     144.118 139.947  88.909  1.00  0.00     0.010 A 
ATOM      9  S   UNL     1     146.361 141.849  91.482  1.00  0.00    -0.128 S 
ATOM     10  Cl  UNL     1     148.071 142.211  88.340  1.00  0.00    -0.083 Cl
ENDROOT
BRANCH   1  11
ATOM     11  C   UNL     1     144.605 141.280  93.777  1.00  0.00     0.261 C 
ATOM     12  N   UNL     1     143.323 141.822  94.186  1.00  0.00    -0.347 N 
ATOM     13  O   UNL     1     145.376 140.911  94.596  1.00  0.00    -0.268 OA
ATOM     14  H   UNL     1     142.678 142.133  93.511  1.00  0.00     0.164 HD
BRANCH  12  15
ATOM     15  C   UNL     1     142.994 141.904  95.627  1.00  0.00     0.099 C 
ATOM     16  C   UNL     1     141.590 141.568  95.839  1.00  0.00     0.015 C 
ATOM     17  C   UNL     1     143.228 143.340  96.138  1.00  0.00     0.109 C 
ATOM     18  C   UNL     1     141.293 141.702  97.238  1.00  0.00     0.021 C 
ATOM     19  C   UNL     1     140.771 142.526  95.101  1.00  0.00     0.021 C 
ATOM     20  N   UNL     1     142.058 143.883  96.675  1.00  0.00    -0.301 NA
ATOM     21  C   UNL     1     141.592 143.096  97.705  1.00  0.00     0.085 C 
ATOM     22  C   UNL     1     141.066 143.967  95.666  1.00  0.00     0.085 C 
ENDBRANCH  12  15
ENDBRANCH   1  11
TORSDOF 2
ENDMDL
MODEL 14
REMARK VINA RESULT:    -6.053      3.692      4.304
REMARK INTER + INTRA:          -7.091
REMARK INTER:                  -6.825
REMARK INTRA:                  -0.266
REMARK UNBOUND:                -0.330
REMARK SMILES O=C(N[C@H]1CN2CCC1CC2)c1cc2cccc(Cl)c2s1
REMARK SMILES IDX 12 1 13 2 14 3 20 4 18 5 17 6 16 7 15 8 21 9 19 10 2 11 3 12
REMARK SMILES IDX 1 13 4 15 9 16 5 17 8 18 10 19 6 20 7 21 11 22
REMARK H PARENT 3 14
ROOT
ATOM      1  C   UNL     1     142.610 140.399  86.027  1.00  0.00     0.093 A 
ATOM      2  C   UNL     1     143.711 139.970  86.686  1.00  0.00     0.034 A 
ATOM      3  C   UNL     1     144.998 140.086  86.060  1.00  0.00    -0.005 A 
ATOM      4  C   UNL     1     144.940 140.675  84.750  1.00  0.00     0.054 A 
ATOM      5  C   UNL     1     146.098 140.849  84.030  1.00  0.00     0.058 A 
ATOM      6  C   UNL     1     147.323 140.454  84.576  1.00  0.00     0.022 A 
ATOM      7  C   UNL     1     147.375 139.877  85.856  1.00  0.00     0.002 A 
ATOM      8  C   UNL     1     146.201 139.699  86.589  1.00  0.00     0.010 A 
ATOM      9  S   UNL     1     143.171 141.008  84.496  1.00  0.00    -0.128 S 
ATOM     10  Cl  UNL     1     146.039 141.578  82.404  1.00  0.00    -0.083 Cl
ENDROOT
BRANCH   1  11
ATOM     11  C   UNL     1     141.172 140.344  86.555  1.00  0.00     0.261 C 
ATOM     12  N   UNL     1     140.892 139.835  87.883  1.00  0.00    -0.347 N 
ATOM     13  O   UNL     1     140.282 140.719  85.869  1.00  0.00    -0.268 OA
ATOM     14  H   UNL     1     141.626 139.519  88.458  1.00  0.00     0.164 HD
BRANCH  12  15
ATOM     15  C   UNL     1     139.494 139.793  88.368  1.00  0.00     0.099 C 
ATOM     16  C   UNL     1     139.469 139.836  89.827  1.00  0.00     0.015 C 
ATOM     17  C   UNL     1     138.820 138.483  87.913  1.00  0.00     0.109 C 
ATOM     18  C   UNL     1     138.103 139.747  90.264  1.00  0.00     0.021 C 
ATOM     19  C   UNL     1     140.191 138.672  90.334  1.00  0.00     0.021 C 
ATOM     20  N   UNL     1     138.361 137.744  89.006  1.00  0.00    -0.301 NA
ATOM     21  C   UNL     1     137.470 138.488  89.748  1.00  0.00     0.085 C 
ATOM     22  C   UNL     1     139.456 137.374  89.825  1.00  0.00     0.085 C 
ENDBRANCH  12  15
ENDBRANCH   1  11
TORSDOF 2
ENDMDL
MODEL 15
REMARK VINA RESULT:    -6.024      5.154      6.301
REMARK INTER + INTRA:          -7.058
REMARK INTER:                  -6.745
REMARK INTRA:                  -0.313
REMARK UNBOUND:                -0.330
REMARK SMILES O=C(N[C@H]1CN2CCC1CC2)c1cc2cccc(Cl)c2s1
REMARK SMILES IDX 12 1 13 2 14 3 20 4 18 5 17 6 16 7 15 8 21 9 19 10 2 11 3 12
REMARK SMILES IDX 1 13 4 15 9 16 5 17 8 18 10 19 6 20 7 21 11 22
REMARK H PARENT 3 14
ROOT
ATOM      1  C   UNL     1     143.981 139.734  93.373  1.00  0.00     0.093 A 
ATOM      2  C   UNL     1     144.234 138.459  92.996  1.00  0.00     0.034 A 
ATOM      3  C   UNL     1     144.715 138.198  91.669  1.00  0.00    -0.005 A 
ATOM      4  C   UNL     1     144.874 139.388  90.878  1.00  0.00     0.054 A 
ATOM      5  C   UNL     1     145.330 139.291  89.585  1.00  0.00     0.058 A 
ATOM      6  C   UNL     1     145.635 138.037  89.047  1.00  0.00     0.022 A 
ATOM      7  C   UNL     1     145.476 136.876  89.822  1.00  0.00     0.002 A 
ATOM      8  C   UNL     1     145.014 136.972  91.135  1.00  0.00     0.010 A 
ATOM      9  S   UNL     1     144.361 140.728  91.995  1.00  0.00    -0.128 S 
ATOM     10  Cl  UNL     1     145.530 140.761  88.595  1.00  0.00    -0.083 Cl
ENDROOT
BRANCH   1  11
ATOM     11  C   UNL     1     143.464 140.177  94.746  1.00  0.00     0.261 C 
ATOM     12  N   UNL     1     142.784 141.448  94.903  1.00  0.00    -0.347 N 
ATOM     13  O   UNL     1     143.625 139.475  95.686  1.00  0.00    -0.268 OA
ATOM     14  H   UNL     1     142.649 142.038  94.127  1.00  0.00     0.164 HD
BRANCH  12  15
ATOM     15  C   UNL     1     142.295 141.852  96.241  1.00  0.00     0.099 C 
ATOM     16  C   UNL     1     140.845 141.699  96.310  1.00  0.00     0.015 C 
ATOM     17  C   UNL     1     142.636 143.333  96.500  1.00  0.00     0.109 C 
ATOM     18  C   UNL     1     140.399 142.142  97.602  1.00  0.00     0.021 C 
ATOM     19  C   UNL     1     140.243 142.560  95.295  1.00  0.00     0.021 C 
ATOM     20  N   UNL     1     141.483 144.081  96.752  1.00  0.00    -0.301 NA
ATOM     21  C   UNL     1     140.805 143.567  97.836  1.00  0.00     0.085 C 
ATOM     22  C   UNL     1     140.638 144.051  95.615  1.00  0.00     0.085 C 
ENDBRANCH  12  15
ENDBRANCH   1  11
TORSDOF 2
ENDMDL
MODEL 16
REMARK VINA RESULT:    -5.988      4.312      7.565
REMARK INTER + INTRA:          -7.018
REMARK INTER:                  -6.697
REMARK INTRA:                  -0.322
REMARK UNBOUND:                -0.330
REMARK SMILES O=C(N[C@H]1CN2CCC1CC2)c1cc2cccc(Cl)c2s1
REMARK SMILES IDX 12 1 13 2 14 3 20 4 18 5 17 6 16 7 15 8 21 9 19 10 2 11 3 12
REMARK SMILES IDX 1 13 4 15 9 16 5 17 8 18 10 19 6 20 7 21 11 22
REMARK H PARENT 3 14
ROOT
ATOM      1  C   UNL     1     139.647 141.391  90.459  1.00  0.00     0.093 A 
ATOM      2  C   UNL     1     139.527 142.299  91.455  1.00  0.00     0.034 A 
ATOM      3  C   UNL     1     138.694 143.452  91.262  1.00  0.00    -0.005 A 
ATOM      4  C   UNL     1     138.064 143.487  89.970  1.00  0.00     0.054 A 
ATOM      5  C   UNL     1     137.235 144.534  89.644  1.00  0.00     0.058 A 
ATOM      6  C   UNL     1     137.010 145.557  90.570  1.00  0.00     0.022 A 
ATOM      7  C   UNL     1     137.628 145.520  91.832  1.00  0.00     0.002 A 
ATOM      8  C   UNL     1     138.470 144.458  92.164  1.00  0.00     0.010 A 
ATOM      9  S   UNL     1     138.656 141.975  89.152  1.00  0.00    -0.128 S 
ATOM     10  Cl  UNL     1     136.450 144.589  88.045  1.00  0.00    -0.083 Cl
ENDROOT
BRANCH   1  11
ATOM     11  C   UNL     1     140.495 140.115  90.507  1.00  0.00     0.261 C 
ATOM     12  N   UNL     1     141.924 140.187  90.743  1.00  0.00    -0.347 N 
ATOM     13  O   UNL     1     139.977 139.062  90.346  1.00  0.00    -0.268 OA
ATOM     14  H   UNL     1     142.361 141.059  90.875  1.00  0.00     0.164 HD
BRANCH  12  15
ATOM     15  C   UNL     1     142.719 138.939  90.784  1.00  0.00     0.099 C 
ATOM     16  C   UNL     1     143.311 138.767  92.107  1.00  0.00     0.015 C 
ATOM     17  C   UNL     1     143.861 139.009  89.751  1.00  0.00     0.109 C 
ATOM     18  C   UNL     1     144.111 137.574  92.099  1.00  0.00     0.021 C 
ATOM     19  C   UNL     1     144.186 139.906  92.371  1.00  0.00     0.021 C 
ATOM     20  N   UNL     1     145.108 138.860  90.363  1.00  0.00    -0.301 NA
ATOM     21  C   UNL     1     145.170 137.661  91.039  1.00  0.00     0.085 C 
ATOM     22  C   UNL     1     145.320 139.922  91.276  1.00  0.00     0.085 C 
ENDBRANCH  12  15
ENDBRANCH   1  11
TORSDOF 2
ENDMDL
MODEL 17
REMARK VINA RESULT:    -5.960      5.560      8.792
REMARK INTER + INTRA:          -6.987
REMARK INTER:                  -6.669
REMARK INTRA:                  -0.318
REMARK UNBOUND:                -0.330
REMARK SMILES O=C(N[C@H]1CN2CCC1CC2)c1cc2cccc(Cl)c2s1
REMARK SMILES IDX 12 1 13 2 14 3 20 4 18 5 17 6 16 7 15 8 21 9 19 10 2 11 3 12
REMARK SMILES IDX 1 13 4 15 9 16 5 17 8 18 10 19 6 20 7 21 11 22
REMARK H PARENT 3 14
ROOT
ATOM      1  C   UNL     1     146.693 138.533  90.817  1.00  0.00     0.093 A 
ATOM      2  C   UNL     1     147.136 137.346  91.291  1.00  0.00     0.034 A 
ATOM      3  C   UNL     1     146.203 136.274  91.494  1.00  0.00    -0.005 A 
ATOM      4  C   UNL     1     144.852 136.625  91.145  1.00  0.00     0.054 A 
ATOM      5  C   UNL     1     143.849 135.696  91.287  1.00  0.00     0.058 A 
ATOM      6  C   UNL     1     144.148 134.417  91.768  1.00  0.00     0.022 A 
ATOM      7  C   UNL     1     145.469 134.079  92.109  1.00  0.00     0.002 A 
ATOM      8  C   UNL     1     146.488 135.020  91.966  1.00  0.00     0.010 A 
ATOM      9  S   UNL     1     144.978 138.350  90.586  1.00  0.00    -0.128 S 
ATOM     10  Cl  UNL     1     142.171 136.120  90.859  1.00  0.00    -0.083 Cl
ENDROOT
BRANCH   1  11
ATOM     11  C   UNL     1     147.558 139.770  90.549  1.00  0.00     0.261 C 
ATOM     12  N   UNL     1     148.243 139.930  89.280  1.00  0.00    -0.347 N 
ATOM     13  O   UNL     1     147.670 140.599  91.386  1.00  0.00    -0.268 OA
ATOM     14  H   UNL     1     148.157 139.244  88.580  1.00  0.00     0.164 HD
BRANCH  12  15
ATOM     15  C   UNL     1     149.072 141.135  89.047  1.00  0.00     0.099 C 
ATOM     16  C   UNL     1     148.484 141.949  87.988  1.00  0.00     0.015 C 
ATOM     17  C   UNL     1     150.489 140.720  88.606  1.00  0.00     0.109 C 
ATOM     18  C   UNL     1     149.336 143.082  87.756  1.00  0.00     0.021 C 
ATOM     19  C   UNL     1     148.439 141.150  86.766  1.00  0.00     0.021 C 
ATOM     20  N   UNL     1     150.808 141.257  87.356  1.00  0.00    -0.301 NA
ATOM     21  C   UNL     1     150.719 142.632  87.389  1.00  0.00     0.085 C 
ATOM     22  C   UNL     1     149.915 140.754  86.379  1.00  0.00     0.085 C 
ENDBRANCH  12  15
ENDBRANCH   1  11
TORSDOF 2
ENDMDL
MODEL 18
REMARK VINA RESULT:    -5.873      3.335      8.036
REMARK INTER + INTRA:          -6.890
REMARK INTER:                  -6.587
REMARK INTRA:                  -0.303
REMARK UNBOUND:                -0.330
REMARK SMILES O=C(N[C@H]1CN2CCC1CC2)c1cc2cccc(Cl)c2s1
REMARK SMILES IDX 12 1 13 2 14 3 20 4 18 5 17 6 16 7 15 8 21 9 19 10 2 11 3 12
REMARK SMILES IDX 1 13 4 15 9 16 5 17 8 18 10 19 6 20 7 21 11 22
REMARK H PARENT 3 14
ROOT
ATOM      1  C   UNL     1     142.949 138.371  90.770  1.00  0.00     0.093 A 
ATOM      2  C   UNL     1     142.150 137.280  90.749  1.00  0.00     0.034 A 
ATOM      3  C   UNL     1     140.758 137.430  90.431  1.00  0.00    -0.005 A 
ATOM      4  C   UNL     1     140.382 138.792  90.162  1.00  0.00     0.054 A 
ATOM      5  C   UNL     1     139.078 139.087  89.842  1.00  0.00     0.058 A 
ATOM      6  C   UNL     1     138.127 138.064  89.780  1.00  0.00     0.022 A 
ATOM      7  C   UNL     1     138.499 136.735  90.044  1.00  0.00     0.002 A 
ATOM      8  C   UNL     1     139.822 136.432  90.370  1.00  0.00     0.010 A 
ATOM      9  S   UNL     1     141.930 139.723  90.365  1.00  0.00    -0.128 S 
ATOM     10  Cl  UNL     1     138.600 140.772  89.507  1.00  0.00    -0.083 Cl
ENDROOT
BRANCH   1  11
ATOM     11  C   UNL     1     144.448 138.378  91.091  1.00  0.00     0.261 C 
ATOM     12  N   UNL     1     145.309 139.420  90.566  1.00  0.00    -0.347 N 
ATOM     13  O   UNL     1     144.905 137.524  91.771  1.00  0.00    -0.268 OA
ATOM     14  H   UNL     1     144.937 140.133  89.998  1.00  0.00     0.164 HD
BRANCH  12  15
ATOM     15  C   UNL     1     146.754 139.403  90.892  1.00  0.00     0.099 C 
ATOM     16  C   UNL     1     147.207 140.750  91.227  1.00  0.00     0.015 C 
ATOM     17  C   UNL     1     147.561 138.914  89.673  1.00  0.00     0.109 C 
ATOM     18  C   UNL     1     148.618 140.706  91.492  1.00  0.00     0.021 C 
ATOM     19  C   UNL     1     146.982 141.612  90.070  1.00  0.00     0.021 C 
ATOM     20  N   UNL     1     148.496 139.870  89.268  1.00  0.00    -0.301 NA
ATOM     21  C   UNL     1     149.357 140.167  90.302  1.00  0.00     0.085 C 
ATOM     22  C   UNL     1     147.826 141.050  88.863  1.00  0.00     0.085 C 
ENDBRANCH  12  15
ENDBRANCH   1  11
TORSDOF 2
ENDMDL
MODEL 19
REMARK VINA RESULT:    -5.785      5.414      6.450
REMARK INTER + INTRA:          -6.791
REMARK INTER:                  -6.486
REMARK INTRA:                  -0.305
REMARK UNBOUND:                -0.330
REMARK SMILES O=C(N[C@H]1CN2CCC1CC2)c1cc2cccc(Cl)c2s1
REMARK SMILES IDX 12 1 13 2 14 3 20 4 18 5 17 6 16 7 15 8 21 9 19 10 2 11 3 12
REMARK SMILES IDX 1 13 4 15 9 16 5 17 8 18 10 19 6 20 7 21 11 22
REMARK H PARENT 3 14
ROOT
ATOM      1  C   UNL     1     143.999 140.929  93.389  1.00  0.00     0.093 A 
ATOM      2  C   UNL     1     144.282 141.283  92.114  1.00  0.00     0.034 A 
ATOM      3  C   UNL     1     144.622 140.268  91.158  1.00  0.00    -0.005 A 
ATOM      4  C   UNL     1     144.613 138.941  91.712  1.00  0.00     0.054 A 
ATOM      5  C   UNL     1     144.919 137.867  90.912  1.00  0.00     0.058 A 
ATOM      6  C   UNL     1     145.236 138.070  89.565  1.00  0.00     0.022 A 
ATOM      7  C   UNL     1     145.244 139.369  89.028  1.00  0.00     0.002 A 
ATOM      8  C   UNL     1     144.934 140.461  89.839  1.00  0.00     0.010 A 
ATOM      9  S   UNL     1     144.153 139.196  93.452  1.00  0.00    -0.128 S 
ATOM     10  Cl  UNL     1     144.912 136.217  91.588  1.00  0.00    -0.083 Cl
ENDROOT
BRANCH   1  11
ATOM     11  C   UNL     1     143.622 141.888  94.524  1.00  0.00     0.261 C 
ATOM     12  N   UNL     1     142.232 142.201  94.794  1.00  0.00    -0.347 N 
ATOM     13  O   UNL     1     144.474 142.379  95.183  1.00  0.00    -0.268 OA
ATOM     14  H   UNL     1     141.518 141.799  94.249  1.00  0.00     0.164 HD
BRANCH  12  15
ATOM     15  C   UNL     1     141.896 143.130  95.896  1.00  0.00     0.099 C 
ATOM     16  C   UNL     1     141.594 142.378  97.110  1.00  0.00     0.015 C 
ATOM     17  C   UNL     1     140.651 143.960  95.522  1.00  0.00     0.109 C 
ATOM     18  C   UNL     1     141.228 143.306  98.144  1.00  0.00     0.021 C 
ATOM     19  C   UNL     1     140.449 141.512  96.842  1.00  0.00     0.021 C 
ATOM     20  N   UNL     1     139.624 143.780  96.452  1.00  0.00    -0.301 NA
ATOM     21  C   UNL     1     140.053 144.132  97.714  1.00  0.00     0.085 C 
ATOM     22  C   UNL     1     139.220 142.422  96.458  1.00  0.00     0.085 C 
ENDBRANCH  12  15
ENDBRANCH   1  11
TORSDOF 2
ENDMDL
MODEL 20
REMARK VINA RESULT:    -5.669      6.164     10.186
REMARK INTER + INTRA:          -6.662
REMARK INTER:                  -6.586
REMARK INTRA:                  -0.076
REMARK UNBOUND:                -0.330
REMARK SMILES O=C(N[C@H]1CN2CCC1CC2)c1cc2cccc(Cl)c2s1
REMARK SMILES IDX 12 1 13 2 14 3 20 4 18 5 17 6 16 7 15 8 21 9 19 10 2 11 3 12
REMARK SMILES IDX 1 13 4 15 9 16 5 17 8 18 10 19 6 20 7 21 11 22
REMARK H PARENT 3 14
ROOT
ATOM      1  C   UNL     1     147.446 136.670  91.703  1.00  0.00     0.093 A 
ATOM      2  C   UNL     1     146.530 135.684  91.564  1.00  0.00     0.034 A 
ATOM      3  C   UNL     1     145.147 136.024  91.392  1.00  0.00    -0.005 A 
ATOM      4  C   UNL     1     144.908 137.443  91.387  1.00  0.00     0.054 A 
ATOM      5  C   UNL     1     143.627 137.917  91.230  1.00  0.00     0.058 A 
ATOM      6  C   UNL     1     142.566 137.020  91.075  1.00  0.00     0.022 A 
ATOM      7  C   UNL     1     142.804 135.634  91.081  1.00  0.00     0.002 A 
ATOM      8  C   UNL     1     144.103 135.150  91.241  1.00  0.00     0.010 A 
ATOM      9  S   UNL     1     146.560 138.166  91.616  1.00  0.00    -0.128 S 
ATOM     10  Cl  UNL     1     143.320 139.673  91.223  1.00  0.00    -0.083 Cl
ENDROOT
BRANCH   1  11
ATOM     11  C   UNL     1     148.954 136.473  91.896  1.00  0.00     0.261 C 
ATOM     12  N   UNL     1     149.903 137.317  91.197  1.00  0.00    -0.347 N 
ATOM     13  O   UNL     1     149.345 135.621  92.620  1.00  0.00    -0.268 OA
ATOM     14  H   UNL     1     149.586 138.025  90.591  1.00  0.00     0.164 HD
BRANCH  12  15
ATOM     15  C   UNL     1     151.354 137.105  91.401  1.00  0.00     0.099 C 
ATOM     16  C   UNL     1     152.110 138.198  90.797  1.00  0.00     0.015 C 
ATOM     17  C   UNL     1     151.793 135.788  90.730  1.00  0.00     0.109 C 
ATOM     18  C   UNL     1     153.511 137.938  90.973  1.00  0.00     0.021 C 
ATOM     19  C   UNL     1     151.821 138.220  89.365  1.00  0.00     0.021 C 
ATOM     20  N   UNL     1     152.789 136.013  89.776  1.00  0.00    -0.301 NA
ATOM     21  C   UNL     1     153.880 136.621  90.358  1.00  0.00     0.085 C 
ATOM     22  C   UNL     1     152.284 136.845  88.747  1.00  0.00     0.085 C 
ENDBRANCH  12  15
ENDBRANCH   1  11
TORSDOF 2
ENDMDL
