MODEL 1
REMARK VINA RESULT:    -8.850      0.000      0.000
REMARK INTER + INTRA:         -14.432
REMARK INTER:                 -13.248
REMARK INTRA:                  -1.183
REMARK UNBOUND:                -1.183
REMARK SMILES C[C@H]1N[C@@H](N[C@@H](O)N2CCC[C@H]2[C@@H](N)O)S[C@@H]1[C@H]1CCN[C@H](C(C)(C)C(F)(F)F)C1
REMARK SMILES IDX 5 1 4 3 2 4 17 5 3 6 16 7 1 8 18 10 19 11 30 12 20 13 22 14
REMARK SMILES IDX 21 15 23 17 24 18 25 19 26 20 27 21 28 22 29 23 6 24 7 25
REMARK SMILES IDX 8 27 12 28 9 29 11 30 10 31 13 32 15 33 14 35
REMARK H PARENT 5 2 3 9 21 16 7 26 15 34 14 36 14 37
ROOT
ATOM      1  N   UNL     1      -0.080 -10.190  13.762  1.00  0.00    -0.255 NA
ATOM      2  H   UNL     1       0.069 -11.044  13.206  1.00  0.00     0.129 HD
ENDROOT
BRANCH   1   3
ATOM      3  C   UNL     1      -1.048 -10.517  14.692  1.00  0.00     0.185 C 
ATOM      4  C   UNL     1      -2.941 -11.402  15.418  1.00  0.00     0.066 C 
ATOM      5  C   UNL     1      -2.476 -10.917  16.637  1.00  0.00     0.069 C 
ATOM      6  N   UNL     1      -2.120 -11.174  14.332  1.00  0.00    -0.290 NA
ATOM      7  S   UNL     1      -0.949 -10.110  16.369  1.00  0.00    -0.122 SA
ATOM      8  C   UNL     1      -4.216 -12.151  15.202  1.00  0.00     0.025 C 
ATOM      9  H   UNL     1      -1.842 -12.077  13.923  1.00  0.00     0.125 HD
BRANCH   5  10
ATOM     10  C   UNL     1      -2.994 -10.925  18.023  1.00  0.00     0.006 C 
ATOM     11  C   UNL     1      -4.138 -11.638  18.365  1.00  0.00     0.020 C 
ATOM     12  C   UNL     1      -2.314 -10.231  19.019  1.00  0.00     0.024 C 
ATOM     13  C   UNL     1      -4.580 -11.591  19.669  1.00  0.00     0.081 C 
ATOM     14  C   UNL     1      -2.832 -10.259  20.322  1.00  0.00     0.068 C 
ATOM     15  N   UNL     1      -3.958 -10.911  20.642  1.00  0.00    -0.313 NA
ATOM     16  H   UNL     1      -4.624 -10.215  21.007  1.00  0.00     0.122 HD
BRANCH  14  17
ATOM     17  C   UNL     1      -2.092  -9.566  21.492  1.00  0.00     0.076 C 
ATOM     18  C   UNL     1      -1.521  -8.205  21.062  1.00  0.00     0.022 C 
ATOM     19  C   UNL     1      -3.047  -9.373  22.684  1.00  0.00     0.022 C 
BRANCH  17  20
ATOM     20  C   UNL     1      -0.838 -10.485  21.987  1.00  0.00     0.395 C 
ATOM     21  F   UNL     1      -0.811 -10.562  23.317  1.00  0.00    -0.170 F 
ATOM     22  F   UNL     1      -0.893 -11.729  21.527  1.00  0.00    -0.170 F 
ATOM     23  F   UNL     1       0.329  -9.989  21.590  1.00  0.00    -0.170 F 
ENDBRANCH  17  20
ENDBRANCH  14  17
ENDBRANCH   5  10
ENDBRANCH   1   3
BRANCH   1  24
ATOM     24  C   UNL     1      -0.196  -9.148  12.830  1.00  0.00     0.261 C 
BRANCH  24  25
ATOM     25  O   UNL     1      -1.261  -8.881  12.294  1.00  0.00    -0.365 OA
ATOM     26  H   UNL     1      -1.714  -9.719  12.022  1.00  0.00     0.214 HD
ENDBRANCH  24  25
BRANCH  24  27
ATOM     27  N   UNL     1       0.946  -8.428  12.537  1.00  0.00    -0.259 NA
ATOM     28  C   UNL     1       1.397  -7.363  13.448  1.00  0.00     0.104 C 
ATOM     29  C   UNL     1       1.837  -8.592  11.378  1.00  0.00     0.089 C 
ATOM     30  C   UNL     1       2.725  -6.894  12.832  1.00  0.00     0.025 C 
ATOM     31  C   UNL     1       2.665  -7.325  11.385  1.00  0.00     0.017 C 
BRANCH  28  32
ATOM     32  C   UNL     1       0.393  -6.218  13.596  1.00  0.00     0.197 C 
BRANCH  32  33
ATOM     33  O   UNL     1      -0.307  -5.877  12.637  1.00  0.00    -0.377 OA
ATOM     34  H   UNL     1      -0.979  -5.216  12.939  1.00  0.00     0.212 HD
ENDBRANCH  32  33
BRANCH  32  35
ATOM     35  N   UNL     1       0.377  -5.589  14.759  1.00  0.00    -0.305 NA
ATOM     36  H   UNL     1       1.013  -4.781  14.721  1.00  0.00     0.121 HD
ATOM     37  H   UNL     1      -0.580  -5.263  14.961  1.00  0.00     0.121 HD
ENDBRANCH  32  35
ENDBRANCH  28  32
ENDBRANCH  24  27
ENDBRANCH   1  24
TORSDOF 10
ENDMDL
MODEL 2
REMARK VINA RESULT:    -8.548      2.267      3.228
REMARK INTER + INTRA:         -13.979
REMARK INTER:                 -12.890
REMARK INTRA:                  -1.090
REMARK UNBOUND:                -1.183
REMARK SMILES C[C@H]1N[C@@H](N[C@@H](O)N2CCC[C@H]2[C@@H](N)O)S[C@@H]1[C@H]1CCN[C@H](C(C)(C)C(F)(F)F)C1
REMARK SMILES IDX 5 1 4 3 2 4 17 5 3 6 16 7 1 8 18 10 19 11 30 12 20 13 22 14
REMARK SMILES IDX 21 15 23 17 24 18 25 19 26 20 27 21 28 22 29 23 6 24 7 25
REMARK SMILES IDX 8 27 12 28 9 29 11 30 10 31 13 32 15 33 14 35
REMARK H PARENT 5 2 3 9 21 16 7 26 15 34 14 36 14 37
ROOT
ATOM      1  N   UNL     1       0.665  -8.088  12.266  1.00  0.00    -0.255 NA
ATOM      2  H   UNL     1       1.612  -7.748  12.487  1.00  0.00     0.129 HD
ENDROOT
BRANCH   1   3
ATOM      3  C   UNL     1       0.112  -8.458  13.477  1.00  0.00     0.185 C 
ATOM      4  C   UNL     1      -0.887  -9.808  14.917  1.00  0.00     0.066 C 
ATOM      5  C   UNL     1      -0.723  -8.714  15.761  1.00  0.00     0.069 C 
ATOM      6  N   UNL     1      -0.405  -9.650  13.634  1.00  0.00    -0.290 NA
ATOM      7  S   UNL     1       0.045  -7.427  14.862  1.00  0.00    -0.122 SA
ATOM      8  C   UNL     1      -1.509 -11.115  15.288  1.00  0.00     0.025 C 
ATOM      9  H   UNL     1       0.320 -10.359  13.456  1.00  0.00     0.125 HD
BRANCH   5  10
ATOM     10  C   UNL     1      -1.069  -8.430  17.172  1.00  0.00     0.006 C 
ATOM     11  C   UNL     1      -0.823  -7.185  17.741  1.00  0.00     0.020 C 
ATOM     12  C   UNL     1      -1.679  -9.412  17.946  1.00  0.00     0.024 C 
ATOM     13  C   UNL     1      -1.150  -6.989  19.065  1.00  0.00     0.081 C 
ATOM     14  C   UNL     1      -1.993  -9.110  19.279  1.00  0.00     0.068 C 
ATOM     15  N   UNL     1      -1.717  -7.925  19.839  1.00  0.00    -0.313 NA
ATOM     16  H   UNL     1      -1.079  -8.098  20.629  1.00  0.00     0.122 HD
BRANCH  14  17
ATOM     17  C   UNL     1      -2.733 -10.131  20.178  1.00  0.00     0.076 C 
ATOM     18  C   UNL     1      -3.718  -9.427  21.125  1.00  0.00     0.022 C 
ATOM     19  C   UNL     1      -3.489 -11.152  19.310  1.00  0.00     0.022 C 
BRANCH  17  20
ATOM     20  C   UNL     1      -1.662 -10.942  21.104  1.00  0.00     0.395 C 
ATOM     21  F   UNL     1      -2.110 -11.047  22.354  1.00  0.00    -0.170 F 
ATOM     22  F   UNL     1      -1.431 -12.176  20.670  1.00  0.00    -0.170 F 
ATOM     23  F   UNL     1      -0.483 -10.332  21.151  1.00  0.00    -0.170 F 
ENDBRANCH  17  20
ENDBRANCH  14  17
ENDBRANCH   5  10
ENDBRANCH   1   3
BRANCH   1  24
ATOM     24  C   UNL     1       0.819  -8.947  11.168  1.00  0.00     0.261 C 
BRANCH  24  25
ATOM     25  O   UNL     1      -0.142  -9.354  10.531  1.00  0.00    -0.365 OA
ATOM     26  H   UNL     1      -0.273 -10.319  10.711  1.00  0.00     0.214 HD
ENDBRANCH  24  25
BRANCH  24  27
ATOM     27  N   UNL     1       2.105  -9.322  10.830  1.00  0.00    -0.259 NA
ATOM     28  C   UNL     1       3.191  -8.328  10.857  1.00  0.00     0.104 C 
ATOM     29  C   UNL     1       2.575 -10.658  10.431  1.00  0.00     0.089 C 
ATOM     30  C   UNL     1       4.447  -9.150  10.527  1.00  0.00     0.025 C 
ATOM     31  C   UNL     1       3.937 -10.389   9.829  1.00  0.00     0.017 C 
BRANCH  28  32
ATOM     32  C   UNL     1       2.985  -7.170   9.879  1.00  0.00     0.197 C 
BRANCH  32  33
ATOM     33  O   UNL     1       3.243  -7.315   8.680  1.00  0.00    -0.377 OA
ATOM     34  H   UNL     1       3.031  -8.242   8.408  1.00  0.00     0.212 HD
ENDBRANCH  32  33
BRANCH  32  35
ATOM     35  N   UNL     1       2.596  -6.016  10.398  1.00  0.00    -0.305 NA
ATOM     36  H   UNL     1       1.715  -6.151  10.913  1.00  0.00     0.121 HD
ATOM     37  H   UNL     1       3.321  -5.667  11.041  1.00  0.00     0.121 HD
ENDBRANCH  32  35
ENDBRANCH  28  32
ENDBRANCH  24  27
ENDBRANCH   1  24
TORSDOF 10
ENDMDL
MODEL 3
REMARK VINA RESULT:    -8.468      1.715      2.936
REMARK INTER + INTRA:         -13.858
REMARK INTER:                 -13.026
REMARK INTRA:                  -0.833
REMARK UNBOUND:                -1.183
REMARK SMILES C[C@H]1N[C@@H](N[C@@H](O)N2CCC[C@H]2[C@@H](N)O)S[C@@H]1[C@H]1CCN[C@H](C(C)(C)C(F)(F)F)C1
REMARK SMILES IDX 5 1 4 3 2 4 17 5 3 6 16 7 1 8 18 10 19 11 30 12 20 13 22 14
REMARK SMILES IDX 21 15 23 17 24 18 25 19 26 20 27 21 28 22 29 23 6 24 7 25
REMARK SMILES IDX 8 27 12 28 9 29 11 30 10 31 13 32 15 33 14 35
REMARK H PARENT 5 2 3 9 21 16 7 26 15 34 14 36 14 37
ROOT
ATOM      1  N   UNL     1       0.325  -8.672  13.291  1.00  0.00    -0.255 NA
ATOM      2  H   UNL     1      -0.246  -9.106  12.552  1.00  0.00     0.129 HD
ENDROOT
BRANCH   1   3
ATOM      3  C   UNL     1      -0.374  -8.871  14.466  1.00  0.00     0.185 C 
ATOM      4  C   UNL     1      -1.126  -8.366  16.484  1.00  0.00     0.066 C 
ATOM      5  C   UNL     1      -1.757  -9.598  16.347  1.00  0.00     0.069 C 
ATOM      6  N   UNL     1      -0.354  -7.967  15.411  1.00  0.00    -0.290 NA
ATOM      7  S   UNL     1      -1.314 -10.281  14.801  1.00  0.00    -0.122 SA
ATOM      8  C   UNL     1      -1.232  -7.453  17.662  1.00  0.00     0.025 C 
ATOM      9  H   UNL     1      -0.725  -7.081  15.040  1.00  0.00     0.125 HD
BRANCH   5  10
ATOM     10  C   UNL     1      -2.653 -10.407  17.204  1.00  0.00     0.006 C 
ATOM     11  C   UNL     1      -3.418 -11.442  16.678  1.00  0.00     0.020 C 
ATOM     12  C   UNL     1      -2.717 -10.153  18.570  1.00  0.00     0.024 C 
ATOM     13  C   UNL     1      -4.247 -12.145  17.524  1.00  0.00     0.081 C 
ATOM     14  C   UNL     1      -3.576 -10.937  19.354  1.00  0.00     0.068 C 
ATOM     15  N   UNL     1      -4.345 -11.906  18.840  1.00  0.00    -0.313 NA
ATOM     16  H   UNL     1      -5.326 -11.658  19.035  1.00  0.00     0.122 HD
BRANCH  14  17
ATOM     17  C   UNL     1      -3.648 -10.756  20.890  1.00  0.00     0.076 C 
ATOM     18  C   UNL     1      -4.153  -9.353  21.261  1.00  0.00     0.022 C 
ATOM     19  C   UNL     1      -4.572 -11.820  21.507  1.00  0.00     0.022 C 
BRANCH  17  20
ATOM     20  C   UNL     1      -2.163 -10.929  21.545  1.00  0.00     0.395 C 
ATOM     21  F   UNL     1      -1.505 -11.927  20.957  1.00  0.00    -0.170 F 
ATOM     22  F   UNL     1      -1.411  -9.842  21.421  1.00  0.00    -0.170 F 
ATOM     23  F   UNL     1      -2.222 -11.199  22.845  1.00  0.00    -0.170 F 
ENDBRANCH  17  20
ENDBRANCH  14  17
ENDBRANCH   5  10
ENDBRANCH   1   3
BRANCH   1  24
ATOM     24  C   UNL     1       0.696  -7.414  12.792  1.00  0.00     0.261 C 
BRANCH  24  25
ATOM     25  O   UNL     1       0.033  -6.413  13.017  1.00  0.00    -0.365 OA
ATOM     26  H   UNL     1       0.637  -5.639  13.147  1.00  0.00     0.214 HD
ENDBRANCH  24  25
BRANCH  24  27
ATOM     27  N   UNL     1       1.848  -7.347  12.032  1.00  0.00    -0.259 NA
ATOM     28  C   UNL     1       1.773  -7.494  10.569  1.00  0.00     0.104 C 
ATOM     29  C   UNL     1       3.223  -7.125  12.506  1.00  0.00     0.089 C 
ATOM     30  C   UNL     1       3.219  -7.258  10.104  1.00  0.00     0.025 C 
ATOM     31  C   UNL     1       4.075  -7.523  11.320  1.00  0.00     0.017 C 
BRANCH  28  32
ATOM     32  C   UNL     1       1.237  -8.854  10.118  1.00  0.00     0.197 C 
BRANCH  32  33
ATOM     33  O   UNL     1       0.061  -9.161  10.335  1.00  0.00    -0.377 OA
ATOM     34  H   UNL     1      -0.016  -9.553  11.240  1.00  0.00     0.212 HD
ENDBRANCH  32  33
BRANCH  32  35
ATOM     35  N   UNL     1       2.108  -9.683   9.566  1.00  0.00    -0.305 NA
ATOM     36  H   UNL     1       2.156  -9.505   8.553  1.00  0.00     0.121 HD
ATOM     37  H   UNL     1       3.037  -9.535   9.986  1.00  0.00     0.121 HD
ENDBRANCH  32  35
ENDBRANCH  28  32
ENDBRANCH  24  27
ENDBRANCH   1  24
TORSDOF 10
ENDMDL
MODEL 4
REMARK VINA RESULT:    -8.385      1.262      2.401
REMARK INTER + INTRA:         -13.735
REMARK INTER:                 -12.359
REMARK INTRA:                  -1.376
REMARK UNBOUND:                -1.183
REMARK SMILES C[C@H]1N[C@@H](N[C@@H](O)N2CCC[C@H]2[C@@H](N)O)S[C@@H]1[C@H]1CCN[C@H](C(C)(C)C(F)(F)F)C1
REMARK SMILES IDX 5 1 4 3 2 4 17 5 3 6 16 7 1 8 18 10 19 11 30 12 20 13 22 14
REMARK SMILES IDX 21 15 23 17 24 18 25 19 26 20 27 21 28 22 29 23 6 24 7 25
REMARK SMILES IDX 8 27 12 28 9 29 11 30 10 31 13 32 15 33 14 35
REMARK H PARENT 5 2 3 9 21 16 7 26 15 34 14 36 14 37
ROOT
ATOM      1  N   UNL     1       0.528  -6.794  14.697  1.00  0.00    -0.255 NA
ATOM      2  H   UNL     1       1.510  -6.965  14.955  1.00  0.00     0.129 HD
ENDROOT
BRANCH   1   3
ATOM      3  C   UNL     1      -0.195  -7.814  15.286  1.00  0.00     0.185 C 
ATOM      4  C   UNL     1      -1.097  -9.828  15.440  1.00  0.00     0.066 C 
ATOM      5  C   UNL     1      -1.496  -9.343  16.682  1.00  0.00     0.069 C 
ATOM      6  N   UNL     1      -0.358  -8.955  14.668  1.00  0.00    -0.290 NA
ATOM      7  S   UNL     1      -0.931  -7.698  16.845  1.00  0.00    -0.122 SA
ATOM      8  C   UNL     1      -1.380 -11.192  14.900  1.00  0.00     0.025 C 
ATOM      9  H   UNL     1       0.564  -9.371  14.477  1.00  0.00     0.125 HD
BRANCH   5  10
ATOM     10  C   UNL     1      -2.275  -9.898  17.811  1.00  0.00     0.006 C 
ATOM     11  C   UNL     1      -3.374 -10.722  17.598  1.00  0.00     0.020 C 
ATOM     12  C   UNL     1      -1.892  -9.618  19.119  1.00  0.00     0.024 C 
ATOM     13  C   UNL     1      -4.070 -11.191  18.690  1.00  0.00     0.081 C 
ATOM     14  C   UNL     1      -2.652 -10.158  20.166  1.00  0.00     0.068 C 
ATOM     15  N   UNL     1      -3.736 -10.918  19.959  1.00  0.00    -0.313 NA
ATOM     16  H   UNL     1      -4.537 -10.435  20.391  1.00  0.00     0.122 HD
BRANCH  14  17
ATOM     17  C   UNL     1      -2.245  -9.944  21.645  1.00  0.00     0.076 C 
ATOM     18  C   UNL     1      -1.975  -8.459  21.938  1.00  0.00     0.022 C 
ATOM     19  C   UNL     1      -3.350 -10.464  22.580  1.00  0.00     0.022 C 
BRANCH  17  20
ATOM     20  C   UNL     1      -0.871 -10.763  21.973  1.00  0.00     0.395 C 
ATOM     21  F   UNL     1      -0.837 -11.909  21.294  1.00  0.00    -0.170 F 
ATOM     22  F   UNL     1       0.225 -10.087  21.651  1.00  0.00    -0.170 F 
ATOM     23  F   UNL     1      -0.766 -11.058  23.264  1.00  0.00    -0.170 F 
ENDBRANCH  17  20
ENDBRANCH  14  17
ENDBRANCH   5  10
ENDBRANCH   1   3
BRANCH   1  24
ATOM     24  C   UNL     1       0.540  -6.524  13.320  1.00  0.00     0.261 C 
BRANCH  24  25
ATOM     25  O   UNL     1      -0.384  -5.942  12.771  1.00  0.00    -0.365 OA
ATOM     26  H   UNL     1      -0.341  -4.977  12.987  1.00  0.00     0.214 HD
ENDBRANCH  24  25
BRANCH  24  27
ATOM     27  N   UNL     1       1.643  -6.941  12.601  1.00  0.00    -0.259 NA
ATOM     28  C   UNL     1       1.463  -7.633  11.314  1.00  0.00     0.104 C 
ATOM     29  C   UNL     1       3.061  -6.774  12.956  1.00  0.00     0.089 C 
ATOM     30  C   UNL     1       2.898  -7.829  10.800  1.00  0.00     0.025 C 
ATOM     31  C   UNL     1       3.775  -7.732  12.027  1.00  0.00     0.017 C 
BRANCH  28  32
ATOM     32  C   UNL     1       0.706  -8.957  11.432  1.00  0.00     0.197 C 
BRANCH  32  33
ATOM     33  O   UNL     1      -0.455  -8.974  11.850  1.00  0.00    -0.377 OA
ATOM     34  H   UNL     1      -1.082  -8.957  11.084  1.00  0.00     0.212 HD
ENDBRANCH  32  33
BRANCH  32  35
ATOM     35  N   UNL     1       1.381 -10.056  11.136  1.00  0.00    -0.305 NA
ATOM     36  H   UNL     1       1.116 -10.378  10.195  1.00  0.00     0.121 HD
ATOM     37  H   UNL     1       2.391  -9.855  11.158  1.00  0.00     0.121 HD
ENDBRANCH  32  35
ENDBRANCH  28  32
ENDBRANCH  24  27
ENDBRANCH   1  24
TORSDOF 10
ENDMDL
MODEL 5
REMARK VINA RESULT:    -8.300      1.076      1.730
REMARK INTER + INTRA:         -13.607
REMARK INTER:                 -12.564
REMARK INTRA:                  -1.043
REMARK UNBOUND:                -1.183
REMARK SMILES C[C@H]1N[C@@H](N[C@@H](O)N2CCC[C@H]2[C@@H](N)O)S[C@@H]1[C@H]1CCN[C@H](C(C)(C)C(F)(F)F)C1
REMARK SMILES IDX 5 1 4 3 2 4 17 5 3 6 16 7 1 8 18 10 19 11 30 12 20 13 22 14
REMARK SMILES IDX 21 15 23 17 24 18 25 19 26 20 27 21 28 22 29 23 6 24 7 25
REMARK SMILES IDX 8 27 12 28 9 29 11 30 10 31 13 32 15 33 14 35
REMARK H PARENT 5 2 3 9 21 16 7 26 15 34 14 36 14 37
ROOT
ATOM      1  N   UNL     1      -0.068 -10.084  13.996  1.00  0.00    -0.255 NA
ATOM      2  H   UNL     1       0.076 -10.905  13.392  1.00  0.00     0.129 HD
ENDROOT
BRANCH   1   3
ATOM      3  C   UNL     1      -1.043 -10.456  14.902  1.00  0.00     0.185 C 
ATOM      4  C   UNL     1      -2.903 -11.439  15.584  1.00  0.00     0.066 C 
ATOM      5  C   UNL     1      -2.502 -10.916  16.809  1.00  0.00     0.069 C 
ATOM      6  N   UNL     1      -2.065 -11.176  14.519  1.00  0.00    -0.290 NA
ATOM      7  S   UNL     1      -1.017 -10.027  16.576  1.00  0.00    -0.122 SA
ATOM      8  C   UNL     1      -4.126 -12.262  15.340  1.00  0.00     0.025 C 
ATOM      9  H   UNL     1      -1.724 -12.066  14.130  1.00  0.00     0.125 HD
BRANCH   5  10
ATOM     10  C   UNL     1      -3.059 -10.940  18.180  1.00  0.00     0.006 C 
ATOM     11  C   UNL     1      -4.199 -11.674  18.487  1.00  0.00     0.020 C 
ATOM     12  C   UNL     1      -2.421 -10.237  19.198  1.00  0.00     0.024 C 
ATOM     13  C   UNL     1      -4.679 -11.640  19.777  1.00  0.00     0.081 C 
ATOM     14  C   UNL     1      -2.975 -10.280  20.486  1.00  0.00     0.068 C 
ATOM     15  N   UNL     1      -4.098 -10.953  20.771  1.00  0.00    -0.313 NA
ATOM     16  H   UNL     1      -4.787 -10.271  21.118  1.00  0.00     0.122 HD
BRANCH  14  17
ATOM     17  C   UNL     1      -2.282  -9.578  21.679  1.00  0.00     0.076 C 
ATOM     18  C   UNL     1      -1.980  -8.105  21.360  1.00  0.00     0.022 C 
ATOM     19  C   UNL     1      -3.169  -9.665  22.934  1.00  0.00     0.022 C 
BRANCH  17  20
ATOM     20  C   UNL     1      -0.859 -10.307  22.009  1.00  0.00     0.395 C 
ATOM     21  F   UNL     1      -0.518 -10.111  23.282  1.00  0.00    -0.170 F 
ATOM     22  F   UNL     1      -0.891 -11.619  21.812  1.00  0.00    -0.170 F 
ATOM     23  F   UNL     1       0.127  -9.836  21.253  1.00  0.00    -0.170 F 
ENDBRANCH  17  20
ENDBRANCH  14  17
ENDBRANCH   5  10
ENDBRANCH   1   3
BRANCH   1  24
ATOM     24  C   UNL     1      -0.171  -8.988  13.126  1.00  0.00     0.261 C 
BRANCH  24  25
ATOM     25  O   UNL     1      -0.924  -9.001  12.163  1.00  0.00    -0.365 OA
ATOM     26  H   UNL     1      -1.820  -8.685  12.441  1.00  0.00     0.214 HD
ENDBRANCH  24  25
BRANCH  24  27
ATOM     27  N   UNL     1       0.615  -7.885  13.398  1.00  0.00    -0.259 NA
ATOM     28  C   UNL     1       1.244  -7.140  12.295  1.00  0.00     0.104 C 
ATOM     29  C   UNL     1       0.923  -7.307  14.716  1.00  0.00     0.089 C 
ATOM     30  C   UNL     1       1.926  -5.955  12.997  1.00  0.00     0.025 C 
ATOM     31  C   UNL     1       2.093  -6.389  14.435  1.00  0.00     0.017 C 
BRANCH  28  32
ATOM     32  C   UNL     1       2.232  -7.975  11.479  1.00  0.00     0.197 C 
BRANCH  32  33
ATOM     33  O   UNL     1       3.443  -7.909  11.711  1.00  0.00    -0.377 OA
ATOM     34  H   UNL     1       3.589  -7.862  12.689  1.00  0.00     0.212 HD
ENDBRANCH  32  33
BRANCH  32  35
ATOM     35  N   UNL     1       1.727  -8.693  10.489  1.00  0.00    -0.305 NA
ATOM     36  H   UNL     1       0.851  -8.261  10.165  1.00  0.00     0.121 HD
ATOM     37  H   UNL     1       2.401  -8.728   9.711  1.00  0.00     0.121 HD
ENDBRANCH  32  35
ENDBRANCH  28  32
ENDBRANCH  24  27
ENDBRANCH   1  24
TORSDOF 10
ENDMDL
MODEL 6
REMARK VINA RESULT:    -8.261      1.879      2.791
REMARK INTER + INTRA:         -13.549
REMARK INTER:                 -12.699
REMARK INTRA:                  -0.850
REMARK UNBOUND:                -1.183
REMARK SMILES C[C@H]1N[C@@H](N[C@@H](O)N2CCC[C@H]2[C@@H](N)O)S[C@@H]1[C@H]1CCN[C@H](C(C)(C)C(F)(F)F)C1
REMARK SMILES IDX 5 1 4 3 2 4 17 5 3 6 16 7 1 8 18 10 19 11 30 12 20 13 22 14
REMARK SMILES IDX 21 15 23 17 24 18 25 19 26 20 27 21 28 22 29 23 6 24 7 25
REMARK SMILES IDX 8 27 12 28 9 29 11 30 10 31 13 32 15 33 14 35
REMARK H PARENT 5 2 3 9 21 16 7 26 15 34 14 36 14 37
ROOT
ATOM      1  N   UNL     1      -0.285  -9.327  12.459  1.00  0.00    -0.255 NA
ATOM      2  H   UNL     1      -1.126  -9.070  11.923  1.00  0.00     0.129 HD
ENDROOT
BRANCH   1   3
ATOM      3  C   UNL     1      -0.694  -9.408  13.777  1.00  0.00     0.185 C 
ATOM      4  C   UNL     1      -0.766  -8.836  15.913  1.00  0.00     0.066 C 
ATOM      5  C   UNL     1      -1.698  -9.868  15.959  1.00  0.00     0.069 C 
ATOM      6  N   UNL     1      -0.213  -8.585  14.673  1.00  0.00    -0.290 NA
ATOM      7  S   UNL     1      -1.842 -10.560  14.360  1.00  0.00    -0.122 SA
ATOM      8  C   UNL     1      -0.342  -7.986  17.066  1.00  0.00     0.025 C 
ATOM      9  H   UNL     1      -0.432  -7.618  14.396  1.00  0.00     0.125 HD
BRANCH   5  10
ATOM     10  C   UNL     1      -2.523 -10.475  17.027  1.00  0.00     0.006 C 
ATOM     11  C   UNL     1      -3.441 -11.482  16.750  1.00  0.00     0.020 C 
ATOM     12  C   UNL     1      -2.365 -10.056  18.344  1.00  0.00     0.024 C 
ATOM     13  C   UNL     1      -4.192 -11.994  17.784  1.00  0.00     0.081 C 
ATOM     14  C   UNL     1      -3.163 -10.652  19.333  1.00  0.00     0.068 C 
ATOM     15  N   UNL     1      -4.077 -11.592  19.058  1.00  0.00    -0.313 NA
ATOM     16  H   UNL     1      -4.994 -11.225  19.349  1.00  0.00     0.122 HD
BRANCH  14  17
ATOM     17  C   UNL     1      -2.994 -10.284  20.827  1.00  0.00     0.076 C 
ATOM     18  C   UNL     1      -2.929  -8.760  21.021  1.00  0.00     0.022 C 
ATOM     19  C   UNL     1      -4.159 -10.861  21.650  1.00  0.00     0.022 C 
BRANCH  17  20
ATOM     20  C   UNL     1      -1.602 -10.908  21.405  1.00  0.00     0.395 C 
ATOM     21  F   UNL     1      -0.579 -10.098  21.136  1.00  0.00    -0.170 F 
ATOM     22  F   UNL     1      -1.620 -11.086  22.721  1.00  0.00    -0.170 F 
ATOM     23  F   UNL     1      -1.328 -12.092  20.868  1.00  0.00    -0.170 F 
ENDBRANCH  17  20
ENDBRANCH  14  17
ENDBRANCH   5  10
ENDBRANCH   1   3
BRANCH   1  24
ATOM     24  C   UNL     1       0.732  -8.479  11.996  1.00  0.00     0.261 C 
BRANCH  24  25
ATOM     25  O   UNL     1       0.721  -7.278  12.222  1.00  0.00    -0.365 OA
ATOM     26  H   UNL     1       1.651  -6.941  12.265  1.00  0.00     0.214 HD
ENDBRANCH  24  25
BRANCH  24  27
ATOM     27  N   UNL     1       1.756  -9.054  11.268  1.00  0.00    -0.259 NA
ATOM     28  C   UNL     1       2.914  -8.243  10.860  1.00  0.00     0.104 C 
ATOM     29  C   UNL     1       1.865 -10.453  10.825  1.00  0.00     0.089 C 
ATOM     30  C   UNL     1       3.849  -9.256  10.181  1.00  0.00     0.025 C 
ATOM     31  C   UNL     1       2.960 -10.410   9.781  1.00  0.00     0.017 C 
BRANCH  28  32
ATOM     32  C   UNL     1       2.551  -7.081   9.933  1.00  0.00     0.197 C 
BRANCH  32  33
ATOM     33  O   UNL     1       2.593  -5.919  10.347  1.00  0.00    -0.377 OA
ATOM     34  H   UNL     1       3.264  -5.408   9.828  1.00  0.00     0.212 HD
ENDBRANCH  32  33
BRANCH  32  35
ATOM     35  N   UNL     1       2.129  -7.398   8.720  1.00  0.00    -0.305 NA
ATOM     36  H   UNL     1       2.935  -7.469   8.084  1.00  0.00     0.121 HD
ATOM     37  H   UNL     1       1.637  -8.303   8.753  1.00  0.00     0.121 HD
ENDBRANCH  32  35
ENDBRANCH  28  32
ENDBRANCH  24  27
ENDBRANCH   1  24
TORSDOF 10
ENDMDL
MODEL 7
REMARK VINA RESULT:    -8.134      2.149      3.233
REMARK INTER + INTRA:         -13.359
REMARK INTER:                 -12.552
REMARK INTRA:                  -0.807
REMARK UNBOUND:                -1.183
REMARK SMILES C[C@H]1N[C@@H](N[C@@H](O)N2CCC[C@H]2[C@@H](N)O)S[C@@H]1[C@H]1CCN[C@H](C(C)(C)C(F)(F)F)C1
REMARK SMILES IDX 5 1 4 3 2 4 17 5 3 6 16 7 1 8 18 10 19 11 30 12 20 13 22 14
REMARK SMILES IDX 21 15 23 17 24 18 25 19 26 20 27 21 28 22 29 23 6 24 7 25
REMARK SMILES IDX 8 27 12 28 9 29 11 30 10 31 13 32 15 33 14 35
REMARK H PARENT 5 2 3 9 21 16 7 26 15 34 14 36 14 37
ROOT
ATOM      1  N   UNL     1       0.315  -8.705  13.305  1.00  0.00    -0.255 NA
ATOM      2  H   UNL     1      -0.256  -9.143  12.567  1.00  0.00     0.129 HD
ENDROOT
BRANCH   1   3
ATOM      3  C   UNL     1      -0.376  -8.916  14.483  1.00  0.00     0.185 C 
ATOM      4  C   UNL     1      -1.104  -8.436  16.517  1.00  0.00     0.066 C 
ATOM      5  C   UNL     1      -1.752  -9.658  16.364  1.00  0.00     0.069 C 
ATOM      6  N   UNL     1      -0.338  -8.028  15.443  1.00  0.00    -0.290 NA
ATOM      7  S   UNL     1      -1.331 -10.320  14.803  1.00  0.00    -0.122 SA
ATOM      8  C   UNL     1      -1.189  -7.541  17.711  1.00  0.00     0.025 C 
ATOM      9  H   UNL     1      -0.701  -7.132  15.090  1.00  0.00     0.125 HD
BRANCH   5  10
ATOM     10  C   UNL     1      -2.649 -10.470  17.216  1.00  0.00     0.006 C 
ATOM     11  C   UNL     1      -3.532 -11.392  16.664  1.00  0.00     0.020 C 
ATOM     12  C   UNL     1      -2.597 -10.337  18.600  1.00  0.00     0.024 C 
ATOM     13  C   UNL     1      -4.355 -12.105  17.509  1.00  0.00     0.081 C 
ATOM     14  C   UNL     1      -3.461 -11.121  19.377  1.00  0.00     0.068 C 
ATOM     15  N   UNL     1      -4.342 -11.979  18.843  1.00  0.00    -0.313 NA
ATOM     16  H   UNL     1      -5.282 -11.675  19.133  1.00  0.00     0.122 HD
BRANCH  14  17
ATOM     17  C   UNL     1      -3.411 -11.074  20.924  1.00  0.00     0.076 C 
ATOM     18  C   UNL     1      -4.307 -12.160  21.543  1.00  0.00     0.022 C 
ATOM     19  C   UNL     1      -1.964 -11.256  21.414  1.00  0.00     0.022 C 
BRANCH  17  20
ATOM     20  C   UNL     1      -3.954  -9.631  21.460  1.00  0.00     0.395 C 
ATOM     21  F   UNL     1      -3.079  -8.668  21.174  1.00  0.00    -0.170 F 
ATOM     22  F   UNL     1      -5.113  -9.278  20.916  1.00  0.00    -0.170 F 
ATOM     23  F   UNL     1      -4.139  -9.627  22.775  1.00  0.00    -0.170 F 
ENDBRANCH  17  20
ENDBRANCH  14  17
ENDBRANCH   5  10
ENDBRANCH   1   3
BRANCH   1  24
ATOM     24  C   UNL     1       0.670  -7.442  12.810  1.00  0.00     0.261 C 
BRANCH  24  25
ATOM     25  O   UNL     1      -0.012  -6.452  13.026  1.00  0.00    -0.365 OA
ATOM     26  H   UNL     1      -0.969  -6.677  12.903  1.00  0.00     0.214 HD
ENDBRANCH  24  25
BRANCH  24  27
ATOM     27  N   UNL     1       1.829  -7.356  12.062  1.00  0.00    -0.259 NA
ATOM     28  C   UNL     1       1.777  -7.532  10.602  1.00  0.00     0.104 C 
ATOM     29  C   UNL     1       3.192  -7.087  12.548  1.00  0.00     0.089 C 
ATOM     30  C   UNL     1       3.221  -7.263  10.149  1.00  0.00     0.025 C 
ATOM     31  C   UNL     1       4.069  -7.482  11.381  1.00  0.00     0.017 C 
BRANCH  28  32
ATOM     32  C   UNL     1       1.284  -8.915  10.169  1.00  0.00     0.197 C 
BRANCH  32  33
ATOM     33  O   UNL     1       2.051  -9.700   9.606  1.00  0.00    -0.377 OA
ATOM     34  H   UNL     1       1.645 -10.004   8.755  1.00  0.00     0.212 HD
ENDBRANCH  32  33
BRANCH  32  35
ATOM     35  N   UNL     1       0.002  -9.176  10.366  1.00  0.00    -0.305 NA
ATOM     36  H   UNL     1      -0.367  -8.553  11.097  1.00  0.00     0.121 HD
ATOM     37  H   UNL     1      -0.518  -9.023   9.490  1.00  0.00     0.121 HD
ENDBRANCH  32  35
ENDBRANCH  28  32
ENDBRANCH  24  27
ENDBRANCH   1  24
TORSDOF 10
ENDMDL
MODEL 8
REMARK VINA RESULT:    -8.058      1.807      2.372
REMARK INTER + INTRA:         -13.246
REMARK INTER:                 -12.128
REMARK INTRA:                  -1.118
REMARK UNBOUND:                -1.183
REMARK SMILES C[C@H]1N[C@@H](N[C@@H](O)N2CCC[C@H]2[C@@H](N)O)S[C@@H]1[C@H]1CCN[C@H](C(C)(C)C(F)(F)F)C1
REMARK SMILES IDX 5 1 4 3 2 4 17 5 3 6 16 7 1 8 18 10 19 11 30 12 20 13 22 14
REMARK SMILES IDX 21 15 23 17 24 18 25 19 26 20 27 21 28 22 29 23 6 24 7 25
REMARK SMILES IDX 8 27 12 28 9 29 11 30 10 31 13 32 15 33 14 35
REMARK H PARENT 5 2 3 9 21 16 7 26 15 34 14 36 14 37
ROOT
ATOM      1  N   UNL     1       0.386  -8.494  12.750  1.00  0.00    -0.255 NA
ATOM      2  H   UNL     1       1.321  -8.445  13.178  1.00  0.00     0.129 HD
ENDROOT
BRANCH   1   3
ATOM      3  C   UNL     1      -0.436  -9.046  13.714  1.00  0.00     0.185 C 
ATOM      4  C   UNL     1      -2.059 -10.329  14.497  1.00  0.00     0.066 C 
ATOM      5  C   UNL     1      -1.631  -9.800  15.710  1.00  0.00     0.069 C 
ATOM      6  N   UNL     1      -1.370  -9.899  13.381  1.00  0.00    -0.290 NA
ATOM      7  S   UNL     1      -0.322  -8.684  15.400  1.00  0.00    -0.122 SA
ATOM      8  C   UNL     1      -3.163 -11.319  14.313  1.00  0.00     0.025 C 
ATOM      9  H   UNL     1      -0.937 -10.710  12.917  1.00  0.00     0.125 HD
BRANCH   5  10
ATOM     10  C   UNL     1      -2.052  -9.962  17.120  1.00  0.00     0.006 C 
ATOM     11  C   UNL     1      -2.765 -11.080  17.539  1.00  0.00     0.020 C 
ATOM     12  C   UNL     1      -1.707  -8.996  18.060  1.00  0.00     0.024 C 
ATOM     13  C   UNL     1      -3.144 -11.164  18.860  1.00  0.00     0.081 C 
ATOM     14  C   UNL     1      -2.122  -9.180  19.387  1.00  0.00     0.068 C 
ATOM     15  N   UNL     1      -2.846 -10.236  19.781  1.00  0.00    -0.313 NA
ATOM     16  H   UNL     1      -3.735  -9.878  20.156  1.00  0.00     0.122 HD
BRANCH  14  17
ATOM     17  C   UNL     1      -1.717  -8.180  20.498  1.00  0.00     0.076 C 
ATOM     18  C   UNL     1      -1.011  -6.949  19.908  1.00  0.00     0.022 C 
ATOM     19  C   UNL     1      -2.960  -7.736  21.289  1.00  0.00     0.022 C 
BRANCH  17  20
ATOM     20  C   UNL     1      -0.677  -8.887  21.537  1.00  0.00     0.395 C 
ATOM     21  F   UNL     1      -1.332  -9.409  22.573  1.00  0.00    -0.170 F 
ATOM     22  F   UNL     1       0.022  -9.872  20.983  1.00  0.00    -0.170 F 
ATOM     23  F   UNL     1       0.209  -8.022  22.018  1.00  0.00    -0.170 F 
ENDBRANCH  17  20
ENDBRANCH  14  17
ENDBRANCH   5  10
ENDBRANCH   1   3
BRANCH   1  24
ATOM     24  C   UNL     1       0.583  -9.035  11.471  1.00  0.00     0.261 C 
BRANCH  24  25
ATOM     25  O   UNL     1      -0.355  -9.286  10.728  1.00  0.00    -0.365 OA
ATOM     26  H   UNL     1      -0.650  -8.454  10.278  1.00  0.00     0.214 HD
ENDBRANCH  24  25
BRANCH  24  27
ATOM     27  N   UNL     1       1.885  -9.278  11.078  1.00  0.00    -0.259 NA
ATOM     28  C   UNL     1       2.871  -8.185  11.088  1.00  0.00     0.104 C 
ATOM     29  C   UNL     1       2.464 -10.555  10.633  1.00  0.00     0.089 C 
ATOM     30  C   UNL     1       4.186  -8.877  10.695  1.00  0.00     0.025 C 
ATOM     31  C   UNL     1       3.771 -10.146   9.988  1.00  0.00     0.017 C 
BRANCH  28  32
ATOM     32  C   UNL     1       2.519  -7.034  10.144  1.00  0.00     0.197 C 
BRANCH  32  33
ATOM     33  O   UNL     1       2.057  -7.268   9.023  1.00  0.00    -0.377 OA
ATOM     34  H   UNL     1       1.105  -7.000   8.997  1.00  0.00     0.212 HD
ENDBRANCH  32  33
BRANCH  32  35
ATOM     35  N   UNL     1       2.803  -5.812  10.565  1.00  0.00    -0.305 NA
ATOM     36  H   UNL     1       3.718  -5.816  11.036  1.00  0.00     0.121 HD
ATOM     37  H   UNL     1       2.833  -5.170   9.760  1.00  0.00     0.121 HD
ENDBRANCH  32  35
ENDBRANCH  28  32
ENDBRANCH  24  27
ENDBRANCH   1  24
TORSDOF 10
ENDMDL
MODEL 9
REMARK VINA RESULT:    -8.039      1.583      2.196
REMARK INTER + INTRA:         -13.217
REMARK INTER:                 -11.625
REMARK INTRA:                  -1.592
REMARK UNBOUND:                -1.183
REMARK SMILES C[C@H]1N[C@@H](N[C@@H](O)N2CCC[C@H]2[C@@H](N)O)S[C@@H]1[C@H]1CCN[C@H](C(C)(C)C(F)(F)F)C1
REMARK SMILES IDX 5 1 4 3 2 4 17 5 3 6 16 7 1 8 18 10 19 11 30 12 20 13 22 14
REMARK SMILES IDX 21 15 23 17 24 18 25 19 26 20 27 21 28 22 29 23 6 24 7 25
REMARK SMILES IDX 8 27 12 28 9 29 11 30 10 31 13 32 15 33 14 35
REMARK H PARENT 5 2 3 9 21 16 7 26 15 34 14 36 14 37
ROOT
ATOM      1  N   UNL     1      -0.010  -9.968  14.006  1.00  0.00    -0.255 NA
ATOM      2  H   UNL     1      -0.258 -10.904  13.654  1.00  0.00     0.129 HD
ENDROOT
BRANCH   1   3
ATOM      3  C   UNL     1      -0.722  -9.813  15.180  1.00  0.00     0.185 C 
ATOM      4  C   UNL     1      -1.658  -8.700  16.848  1.00  0.00     0.066 C 
ATOM      5  C   UNL     1      -2.047  -9.980  17.229  1.00  0.00     0.069 C 
ATOM      6  N   UNL     1      -0.916  -8.622  15.686  1.00  0.00    -0.290 NA
ATOM      7  S   UNL     1      -1.407 -11.123  16.073  1.00  0.00    -0.122 SA
ATOM      8  C   UNL     1      -1.989  -7.432  17.566  1.00  0.00     0.025 C 
ATOM      9  H   UNL     1      -1.421  -8.042  15.001  1.00  0.00     0.125 HD
BRANCH   5  10
ATOM     10  C   UNL     1      -2.825 -10.535  18.359  1.00  0.00     0.006 C 
ATOM     11  C   UNL     1      -3.855 -11.446  18.151  1.00  0.00     0.020 C 
ATOM     12  C   UNL     1      -2.509 -10.166  19.663  1.00  0.00     0.024 C 
ATOM     13  C   UNL     1      -4.554 -11.912  19.243  1.00  0.00     0.081 C 
ATOM     14  C   UNL     1      -3.266 -10.710  20.711  1.00  0.00     0.068 C 
ATOM     15  N   UNL     1      -4.286 -11.555  20.507  1.00  0.00    -0.313 NA
ATOM     16  H   UNL     1      -5.134 -11.112  20.888  1.00  0.00     0.122 HD
BRANCH  14  17
ATOM     17  C   UNL     1      -2.928 -10.397  22.189  1.00  0.00     0.076 C 
ATOM     18  C   UNL     1      -3.780 -11.246  23.146  1.00  0.00     0.022 C 
ATOM     19  C   UNL     1      -1.435 -10.653  22.458  1.00  0.00     0.022 C 
BRANCH  17  20
ATOM     20  C   UNL     1      -3.244  -8.829  22.517  1.00  0.00     0.395 C 
ATOM     21  F   UNL     1      -3.523  -8.669  23.810  1.00  0.00    -0.170 F 
ATOM     22  F   UNL     1      -2.225  -8.025  22.236  1.00  0.00    -0.170 F 
ATOM     23  F   UNL     1      -4.283  -8.376  21.824  1.00  0.00    -0.170 F 
ENDBRANCH  17  20
ENDBRANCH  14  17
ENDBRANCH   5  10
ENDBRANCH   1   3
BRANCH   1  24
ATOM     24  C   UNL     1      -0.107  -9.110  12.901  1.00  0.00     0.261 C 
BRANCH  24  25
ATOM     25  O   UNL     1      -1.144  -8.996  12.264  1.00  0.00    -0.365 OA
ATOM     26  H   UNL     1      -1.611  -9.869  12.236  1.00  0.00     0.214 HD
ENDBRANCH  24  25
BRANCH  24  27
ATOM     27  N   UNL     1       1.021  -8.392  12.554  1.00  0.00    -0.259 NA
ATOM     28  C   UNL     1       1.467  -7.270  13.398  1.00  0.00     0.104 C 
ATOM     29  C   UNL     1       1.901  -8.608  11.394  1.00  0.00     0.089 C 
ATOM     30  C   UNL     1       2.781  -6.818  12.740  1.00  0.00     0.025 C 
ATOM     31  C   UNL     1       2.710  -7.331  11.321  1.00  0.00     0.017 C 
BRANCH  28  32
ATOM     32  C   UNL     1       0.448  -6.134  13.493  1.00  0.00     0.197 C 
BRANCH  32  33
ATOM     33  O   UNL     1      -0.037  -5.645  12.469  1.00  0.00    -0.377 OA
ATOM     34  H   UNL     1      -0.536  -4.823  12.701  1.00  0.00     0.212 HD
ENDBRANCH  32  33
BRANCH  32  35
ATOM     35  N   UNL     1       0.185  -5.673  14.706  1.00  0.00    -0.305 NA
ATOM     36  H   UNL     1       0.796  -6.140  15.390  1.00  0.00     0.121 HD
ATOM     37  H   UNL     1       0.353  -4.657  14.731  1.00  0.00     0.121 HD
ENDBRANCH  32  35
ENDBRANCH  28  32
ENDBRANCH  24  27
ENDBRANCH   1  24
TORSDOF 10
ENDMDL
MODEL 10
REMARK VINA RESULT:    -7.911      2.054      3.229
REMARK INTER + INTRA:         -13.025
REMARK INTER:                 -11.611
REMARK INTRA:                  -1.413
REMARK UNBOUND:                -1.183
REMARK SMILES C[C@H]1N[C@@H](N[C@@H](O)N2CCC[C@H]2[C@@H](N)O)S[C@@H]1[C@H]1CCN[C@H](C(C)(C)C(F)(F)F)C1
REMARK SMILES IDX 5 1 4 3 2 4 17 5 3 6 16 7 1 8 18 10 19 11 30 12 20 13 22 14
REMARK SMILES IDX 21 15 23 17 24 18 25 19 26 20 27 21 28 22 29 23 6 24 7 25
REMARK SMILES IDX 8 27 12 28 9 29 11 30 10 31 13 32 15 33 14 35
REMARK H PARENT 5 2 3 9 21 16 7 26 15 34 14 36 14 37
ROOT
ATOM      1  N   UNL     1       1.359  -6.526  14.408  1.00  0.00    -0.255 NA
ATOM      2  H   UNL     1       2.260  -7.019  14.475  1.00  0.00     0.129 HD
ENDROOT
BRANCH   1   3
ATOM      3  C   UNL     1       0.550  -7.095  15.373  1.00  0.00     0.185 C 
ATOM      4  C   UNL     1      -0.832  -8.597  16.228  1.00  0.00     0.066 C 
ATOM      5  C   UNL     1      -0.727  -7.775  17.345  1.00  0.00     0.069 C 
ATOM      6  N   UNL     1      -0.100  -8.203  15.126  1.00  0.00    -0.290 NA
ATOM      7  S   UNL     1       0.320  -6.432  16.952  1.00  0.00    -0.122 SA
ATOM      8  C   UNL     1      -1.636  -9.853  16.136  1.00  0.00     0.025 C 
ATOM      9  H   UNL     1       0.574  -8.944  14.886  1.00  0.00     0.125 HD
BRANCH   5  10
ATOM     10  C   UNL     1      -1.307  -7.794  18.707  1.00  0.00     0.006 C 
ATOM     11  C   UNL     1      -1.948  -6.680  19.237  1.00  0.00     0.020 C 
ATOM     12  C   UNL     1      -1.239  -8.955  19.470  1.00  0.00     0.024 C 
ATOM     13  C   UNL     1      -2.451  -6.755  20.517  1.00  0.00     0.081 C 
ATOM     14  C   UNL     1      -1.798  -8.940  20.757  1.00  0.00     0.068 C 
ATOM     15  N   UNL     1      -2.378  -7.853  21.283  1.00  0.00    -0.313 NA
ATOM     16  H   UNL     1      -1.851  -7.602  22.131  1.00  0.00     0.122 HD
BRANCH  14  17
ATOM     17  C   UNL     1      -1.819 -10.214  21.636  1.00  0.00     0.076 C 
ATOM     18  C   UNL     1      -3.081 -10.264  22.513  1.00  0.00     0.022 C 
ATOM     19  C   UNL     1      -1.754 -11.471  20.751  1.00  0.00     0.022 C 
BRANCH  17  20
ATOM     20  C   UNL     1      -0.530 -10.227  22.636  1.00  0.00     0.395 C 
ATOM     21  F   UNL     1      -0.713  -9.378  23.647  1.00  0.00    -0.170 F 
ATOM     22  F   UNL     1      -0.299 -11.421  23.169  1.00  0.00    -0.170 F 
ATOM     23  F   UNL     1       0.587  -9.871  22.011  1.00  0.00    -0.170 F 
ENDBRANCH  17  20
ENDBRANCH  14  17
ENDBRANCH   5  10
ENDBRANCH   1   3
BRANCH   1  24
ATOM     24  C   UNL     1       1.051  -6.484  13.040  1.00  0.00     0.261 C 
BRANCH  24  25
ATOM     25  O   UNL     1       0.039  -5.940  12.625  1.00  0.00    -0.365 OA
ATOM     26  H   UNL     1      -0.068  -6.132  11.660  1.00  0.00     0.214 HD
ENDBRANCH  24  25
BRANCH  24  27
ATOM     27  N   UNL     1       1.941  -7.085  12.170  1.00  0.00    -0.259 NA
ATOM     28  C   UNL     1       1.441  -7.952  11.090  1.00  0.00     0.104 C 
ATOM     29  C   UNL     1       3.407  -6.968  12.165  1.00  0.00     0.089 C 
ATOM     30  C   UNL     1       2.709  -8.326  10.306  1.00  0.00     0.025 C 
ATOM     31  C   UNL     1       3.850  -8.106  11.271  1.00  0.00     0.017 C 
BRANCH  28  32
ATOM     32  C   UNL     1       0.687  -9.184  11.593  1.00  0.00     0.197 C 
BRANCH  32  33
ATOM     33  O   UNL     1       1.136 -10.315  11.386  1.00  0.00    -0.377 OA
ATOM     34  H   UNL     1       1.342 -10.417  10.423  1.00  0.00     0.212 HD
ENDBRANCH  32  33
BRANCH  32  35
ATOM     35  N   UNL     1      -0.479  -8.968  12.180  1.00  0.00    -0.305 NA
ATOM     36  H   UNL     1      -0.582  -9.605  12.982  1.00  0.00     0.121 HD
ATOM     37  H   UNL     1      -0.523  -7.993  12.509  1.00  0.00     0.121 HD
ENDBRANCH  32  35
ENDBRANCH  28  32
ENDBRANCH  24  27
ENDBRANCH   1  24
TORSDOF 10
ENDMDL
MODEL 11
REMARK VINA RESULT:    -7.910      2.395      3.705
REMARK INTER + INTRA:         -13.024
REMARK INTER:                 -12.275
REMARK INTRA:                  -0.749
REMARK UNBOUND:                -1.183
REMARK SMILES C[C@H]1N[C@@H](N[C@@H](O)N2CCC[C@H]2[C@@H](N)O)S[C@@H]1[C@H]1CCN[C@H](C(C)(C)C(F)(F)F)C1
REMARK SMILES IDX 5 1 4 3 2 4 17 5 3 6 16 7 1 8 18 10 19 11 30 12 20 13 22 14
REMARK SMILES IDX 21 15 23 17 24 18 25 19 26 20 27 21 28 22 29 23 6 24 7 25
REMARK SMILES IDX 8 27 12 28 9 29 11 30 10 31 13 32 15 33 14 35
REMARK H PARENT 5 2 3 9 21 16 7 26 15 34 14 36 14 37
ROOT
ATOM      1  N   UNL     1       0.513  -8.204  12.124  1.00  0.00    -0.255 NA
ATOM      2  H   UNL     1       1.023  -7.320  12.261  1.00  0.00     0.129 HD
ENDROOT
BRANCH   1   3
ATOM      3  C   UNL     1       0.030  -8.552  13.370  1.00  0.00     0.185 C 
ATOM      4  C   UNL     1      -0.834  -9.892  14.905  1.00  0.00     0.066 C 
ATOM      5  C   UNL     1      -0.698  -8.756  15.696  1.00  0.00     0.069 C 
ATOM      6  N   UNL     1      -0.412  -9.763  13.597  1.00  0.00    -0.290 NA
ATOM      7  S   UNL     1      -0.039  -7.469  14.715  1.00  0.00    -0.122 SA
ATOM      8  C   UNL     1      -1.365 -11.215  15.353  1.00  0.00     0.025 C 
ATOM      9  H   UNL     1       0.344 -10.438  13.417  1.00  0.00     0.125 HD
BRANCH   5  10
ATOM     10  C   UNL     1      -1.003  -8.432  17.108  1.00  0.00     0.006 C 
ATOM     11  C   UNL     1      -0.732  -7.175  17.637  1.00  0.00     0.020 C 
ATOM     12  C   UNL     1      -1.598  -9.389  17.924  1.00  0.00     0.024 C 
ATOM     13  C   UNL     1      -1.022  -6.941  18.963  1.00  0.00     0.081 C 
ATOM     14  C   UNL     1      -1.873  -9.049  19.257  1.00  0.00     0.068 C 
ATOM     15  N   UNL     1      -1.573  -7.852  19.777  1.00  0.00    -0.313 NA
ATOM     16  H   UNL     1      -0.915  -8.009  20.554  1.00  0.00     0.122 HD
BRANCH  14  17
ATOM     17  C   UNL     1      -2.595 -10.040  20.202  1.00  0.00     0.076 C 
ATOM     18  C   UNL     1      -3.592  -9.310  21.117  1.00  0.00     0.022 C 
ATOM     19  C   UNL     1      -3.333 -11.113  19.384  1.00  0.00     0.022 C 
BRANCH  17  20
ATOM     20  C   UNL     1      -1.510 -10.789  21.165  1.00  0.00     0.395 C 
ATOM     21  F   UNL     1      -1.368 -12.064  20.805  1.00  0.00    -0.170 F 
ATOM     22  F   UNL     1      -0.304 -10.235  21.117  1.00  0.00    -0.170 F 
ATOM     23  F   UNL     1      -1.882 -10.772  22.440  1.00  0.00    -0.170 F 
ENDBRANCH  17  20
ENDBRANCH  14  17
ENDBRANCH   5  10
ENDBRANCH   1   3
BRANCH   1  24
ATOM     24  C   UNL     1       1.358  -9.011  11.347  1.00  0.00     0.261 C 
BRANCH  24  25
ATOM     25  O   UNL     1       1.021 -10.127  10.980  1.00  0.00    -0.365 OA
ATOM     26  H   UNL     1       1.527 -10.808  11.491  1.00  0.00     0.214 HD
ENDBRANCH  24  25
BRANCH  24  27
ATOM     27  N   UNL     1       2.594  -8.494  11.008  1.00  0.00    -0.259 NA
ATOM     28  C   UNL     1       3.095  -8.631   9.630  1.00  0.00     0.104 C 
ATOM     29  C   UNL     1       3.534  -7.773  11.880  1.00  0.00     0.089 C 
ATOM     30  C   UNL     1       4.419  -7.851   9.645  1.00  0.00     0.025 C 
ATOM     31  C   UNL     1       4.829  -7.793  11.098  1.00  0.00     0.017 C 
BRANCH  28  32
ATOM     32  C   UNL     1       3.284 -10.084   9.190  1.00  0.00     0.197 C 
BRANCH  32  33
ATOM     33  O   UNL     1       2.700 -10.512   8.191  1.00  0.00    -0.377 OA
ATOM     34  H   UNL     1       3.361 -10.894   7.561  1.00  0.00     0.212 HD
ENDBRANCH  32  33
BRANCH  32  35
ATOM     35  N   UNL     1       4.033 -10.848   9.969  1.00  0.00    -0.305 NA
ATOM     36  H   UNL     1       4.343 -10.304  10.787  1.00  0.00     0.121 HD
ATOM     37  H   UNL     1       3.483 -11.659  10.286  1.00  0.00     0.121 HD
ENDBRANCH  32  35
ENDBRANCH  28  32
ENDBRANCH  24  27
ENDBRANCH   1  24
TORSDOF 10
ENDMDL
MODEL 12
REMARK VINA RESULT:    -7.910      2.338      3.496
REMARK INTER + INTRA:         -13.024
REMARK INTER:                 -11.697
REMARK INTRA:                  -1.327
REMARK UNBOUND:                -1.183
REMARK SMILES C[C@H]1N[C@@H](N[C@@H](O)N2CCC[C@H]2[C@@H](N)O)S[C@@H]1[C@H]1CCN[C@H](C(C)(C)C(F)(F)F)C1
REMARK SMILES IDX 5 1 4 3 2 4 17 5 3 6 16 7 1 8 18 10 19 11 30 12 20 13 22 14
REMARK SMILES IDX 21 15 23 17 24 18 25 19 26 20 27 21 28 22 29 23 6 24 7 25
REMARK SMILES IDX 8 27 12 28 9 29 11 30 10 31 13 32 15 33 14 35
REMARK H PARENT 5 2 3 9 21 16 7 26 15 34 14 36 14 37
ROOT
ATOM      1  N   UNL     1       1.322  -6.636  14.407  1.00  0.00    -0.255 NA
ATOM      2  H   UNL     1       2.213  -7.148  14.487  1.00  0.00     0.129 HD
ENDROOT
BRANCH   1   3
ATOM      3  C   UNL     1       0.468  -7.233  15.315  1.00  0.00     0.185 C 
ATOM      4  C   UNL     1      -0.963  -8.751  16.051  1.00  0.00     0.066 C 
ATOM      5  C   UNL     1      -0.899  -7.973  17.203  1.00  0.00     0.069 C 
ATOM      6  N   UNL     1      -0.181  -8.324  14.997  1.00  0.00    -0.290 NA
ATOM      7  S   UNL     1       0.177  -6.628  16.906  1.00  0.00    -0.122 SA
ATOM      8  C   UNL     1      -1.775  -9.994  15.876  1.00  0.00     0.025 C 
ATOM      9  H   UNL     1       0.496  -9.062  14.757  1.00  0.00     0.125 HD
BRANCH   5  10
ATOM     10  C   UNL     1      -1.537  -8.038  18.536  1.00  0.00     0.006 C 
ATOM     11  C   UNL     1      -1.920  -6.885  19.213  1.00  0.00     0.020 C 
ATOM     12  C   UNL     1      -1.789  -9.275  19.123  1.00  0.00     0.024 C 
ATOM     13  C   UNL     1      -2.492  -7.011  20.459  1.00  0.00     0.081 C 
ATOM     14  C   UNL     1      -2.395  -9.301  20.387  1.00  0.00     0.068 C 
ATOM     15  N   UNL     1      -2.725  -8.188  21.057  1.00  0.00    -0.313 NA
ATOM     16  H   UNL     1      -2.198  -8.194  21.942  1.00  0.00     0.122 HD
BRANCH  14  17
ATOM     17  C   UNL     1      -2.766 -10.640  21.070  1.00  0.00     0.076 C 
ATOM     18  C   UNL     1      -1.650 -11.683  20.891  1.00  0.00     0.022 C 
ATOM     19  C   UNL     1      -3.031 -10.416  22.569  1.00  0.00     0.022 C 
BRANCH  17  20
ATOM     20  C   UNL     1      -4.120 -11.256  20.399  1.00  0.00     0.395 C 
ATOM     21  F   UNL     1      -5.104 -10.358  20.425  1.00  0.00    -0.170 F 
ATOM     22  F   UNL     1      -3.954 -11.613  19.130  1.00  0.00    -0.170 F 
ATOM     23  F   UNL     1      -4.546 -12.337  21.042  1.00  0.00    -0.170 F 
ENDBRANCH  17  20
ENDBRANCH  14  17
ENDBRANCH   5  10
ENDBRANCH   1   3
BRANCH   1  24
ATOM     24  C   UNL     1       1.069  -6.529  13.032  1.00  0.00     0.261 C 
BRANCH  24  25
ATOM     25  O   UNL     1       0.079  -5.955  12.604  1.00  0.00    -0.365 OA
ATOM     26  H   UNL     1      -0.508  -6.607  12.143  1.00  0.00     0.214 HD
ENDBRANCH  24  25
BRANCH  24  27
ATOM     27  N   UNL     1       1.987  -7.099  12.171  1.00  0.00    -0.259 NA
ATOM     28  C   UNL     1       1.523  -7.934  11.050  1.00  0.00     0.104 C 
ATOM     29  C   UNL     1       3.452  -6.976  12.211  1.00  0.00     0.089 C 
ATOM     30  C   UNL     1       2.815  -8.279  10.293  1.00  0.00     0.025 C 
ATOM     31  C   UNL     1       3.927  -8.084  11.297  1.00  0.00     0.017 C 
BRANCH  28  32
ATOM     32  C   UNL     1       0.761  -9.184  11.492  1.00  0.00     0.197 C 
BRANCH  32  33
ATOM     33  O   UNL     1       1.242 -10.305  11.304  1.00  0.00    -0.377 OA
ATOM     34  H   UNL     1       2.139 -10.353  11.721  1.00  0.00     0.212 HD
ENDBRANCH  32  33
BRANCH  32  35
ATOM     35  N   UNL     1      -0.444  -8.995  12.006  1.00  0.00    -0.305 NA
ATOM     36  H   UNL     1      -0.375  -8.943  13.032  1.00  0.00     0.121 HD
ATOM     37  H   UNL     1      -0.837  -8.114  11.643  1.00  0.00     0.121 HD
ENDBRANCH  32  35
ENDBRANCH  28  32
ENDBRANCH  24  27
ENDBRANCH   1  24
TORSDOF 10
ENDMDL
MODEL 13
REMARK VINA RESULT:    -7.895      2.179      3.604
REMARK INTER + INTRA:         -13.001
REMARK INTER:                 -11.838
REMARK INTRA:                  -1.163
REMARK UNBOUND:                -1.183
REMARK SMILES C[C@H]1N[C@@H](N[C@@H](O)N2CCC[C@H]2[C@@H](N)O)S[C@@H]1[C@H]1CCN[C@H](C(C)(C)C(F)(F)F)C1
REMARK SMILES IDX 5 1 4 3 2 4 17 5 3 6 16 7 1 8 18 10 19 11 30 12 20 13 22 14
REMARK SMILES IDX 21 15 23 17 24 18 25 19 26 20 27 21 28 22 29 23 6 24 7 25
REMARK SMILES IDX 8 27 12 28 9 29 11 30 10 31 13 32 15 33 14 35
REMARK H PARENT 5 2 3 9 21 16 7 26 15 34 14 36 14 37
ROOT
ATOM      1  N   UNL     1       1.012  -6.967  12.776  1.00  0.00    -0.255 NA
ATOM      2  H   UNL     1       0.844  -5.953  12.845  1.00  0.00     0.129 HD
ENDROOT
BRANCH   1   3
ATOM      3  C   UNL     1       0.388  -7.522  13.877  1.00  0.00     0.185 C 
ATOM      4  C   UNL     1      -0.589  -9.117  15.059  1.00  0.00     0.066 C 
ATOM      5  C   UNL     1      -0.632  -8.111  16.020  1.00  0.00     0.069 C 
ATOM      6  N   UNL     1      -0.004  -8.770  13.858  1.00  0.00    -0.290 NA
ATOM      7  S   UNL     1       0.071  -6.663  15.341  1.00  0.00    -0.122 SA
ATOM      8  C   UNL     1      -1.092 -10.513  15.228  1.00  0.00     0.025 C 
ATOM      9  H   UNL     1       0.810  -9.378  13.691  1.00  0.00     0.125 HD
BRANCH   5  10
ATOM     10  C   UNL     1      -1.144  -8.021  17.405  1.00  0.00     0.006 C 
ATOM     11  C   UNL     1      -1.154  -6.814  18.096  1.00  0.00     0.020 C 
ATOM     12  C   UNL     1      -1.653  -9.155  18.030  1.00  0.00     0.024 C 
ATOM     13  C   UNL     1      -1.626  -6.799  19.390  1.00  0.00     0.081 C 
ATOM     14  C   UNL     1      -2.129  -9.035  19.343  1.00  0.00     0.068 C 
ATOM     15  N   UNL     1      -2.100  -7.881  20.024  1.00  0.00    -0.313 NA
ATOM     16  H   UNL     1      -1.516  -8.030  20.859  1.00  0.00     0.122 HD
BRANCH  14  17
ATOM     17  C   UNL     1      -2.771 -10.239  20.075  1.00  0.00     0.076 C 
ATOM     18  C   UNL     1      -3.936  -9.788  20.971  1.00  0.00     0.022 C 
ATOM     19  C   UNL     1      -3.274 -11.274  19.054  1.00  0.00     0.022 C 
BRANCH  17  20
ATOM     20  C   UNL     1      -1.670 -10.963  21.037  1.00  0.00     0.395 C 
ATOM     21  F   UNL     1      -1.388 -12.185  20.587  1.00  0.00    -0.170 F 
ATOM     22  F   UNL     1      -0.522 -10.299  21.103  1.00  0.00    -0.170 F 
ATOM     23  F   UNL     1      -2.105 -11.087  22.286  1.00  0.00    -0.170 F 
ENDBRANCH  17  20
ENDBRANCH  14  17
ENDBRANCH   5  10
ENDBRANCH   1   3
BRANCH   1  24
ATOM     24  C   UNL     1       2.377  -7.105  12.485  1.00  0.00     0.261 C 
BRANCH  24  25
ATOM     25  O   UNL     1       3.227  -7.085  13.363  1.00  0.00    -0.365 OA
ATOM     26  H   UNL     1       3.670  -6.199  13.373  1.00  0.00     0.214 HD
ENDBRANCH  24  25
BRANCH  24  27
ATOM     27  N   UNL     1       2.731  -7.266  11.159  1.00  0.00    -0.259 NA
ATOM     28  C   UNL     1       1.732  -7.735  10.184  1.00  0.00     0.104 C 
ATOM     29  C   UNL     1       4.042  -7.010  10.543  1.00  0.00     0.089 C 
ATOM     30  C   UNL     1       2.478  -7.679   8.841  1.00  0.00     0.025 C 
ATOM     31  C   UNL     1       3.945  -7.705   9.202  1.00  0.00     0.017 C 
BRANCH  28  32
ATOM     32  C   UNL     1       1.191  -9.134  10.487  1.00  0.00     0.197 C 
BRANCH  32  33
ATOM     33  O   UNL     1       1.955 -10.103  10.515  1.00  0.00    -0.377 OA
ATOM     34  H   UNL     1       2.742  -9.919   9.943  1.00  0.00     0.212 HD
ENDBRANCH  32  33
BRANCH  32  35
ATOM     35  N   UNL     1      -0.119  -9.244  10.637  1.00  0.00    -0.305 NA
ATOM     36  H   UNL     1      -0.476  -9.978  10.010  1.00  0.00     0.121 HD
ATOM     37  H   UNL     1      -0.333  -9.493  11.614  1.00  0.00     0.121 HD
ENDBRANCH  32  35
ENDBRANCH  28  32
ENDBRANCH  24  27
ENDBRANCH   1  24
TORSDOF 10
ENDMDL
MODEL 14
REMARK VINA RESULT:    -7.789      2.139      3.041
REMARK INTER + INTRA:         -12.843
REMARK INTER:                 -11.387
REMARK INTRA:                  -1.457
REMARK UNBOUND:                -1.183
REMARK SMILES C[C@H]1N[C@@H](N[C@@H](O)N2CCC[C@H]2[C@@H](N)O)S[C@@H]1[C@H]1CCN[C@H](C(C)(C)C(F)(F)F)C1
REMARK SMILES IDX 5 1 4 3 2 4 17 5 3 6 16 7 1 8 18 10 19 11 30 12 20 13 22 14
REMARK SMILES IDX 21 15 23 17 24 18 25 19 26 20 27 21 28 22 29 23 6 24 7 25
REMARK SMILES IDX 8 27 12 28 9 29 11 30 10 31 13 32 15 33 14 35
REMARK H PARENT 5 2 3 9 21 16 7 26 15 34 14 36 14 37
ROOT
ATOM      1  N   UNL     1       0.793  -7.651  13.956  1.00  0.00    -0.255 NA
ATOM      2  H   UNL     1       0.710  -8.364  13.217  1.00  0.00     0.129 HD
ENDROOT
BRANCH   1   3
ATOM      3  C   UNL     1      -0.097  -8.032  14.942  1.00  0.00     0.185 C 
ATOM      4  C   UNL     1      -1.386  -7.762  16.720  1.00  0.00     0.066 C 
ATOM      5  C   UNL     1      -1.681  -9.098  16.469  1.00  0.00     0.069 C 
ATOM      6  N   UNL     1      -0.495  -7.173  15.845  1.00  0.00    -0.290 NA
ATOM      7  S   UNL     1      -0.755  -9.623  15.084  1.00  0.00    -0.122 SA
ATOM      8  C   UNL     1      -1.959  -6.929  17.819  1.00  0.00     0.025 C 
ATOM      9  H   UNL     1      -0.956  -6.380  15.377  1.00  0.00     0.125 HD
BRANCH   5  10
ATOM     10  C   UNL     1      -2.549 -10.108  17.115  1.00  0.00     0.006 C 
ATOM     11  C   UNL     1      -3.109 -11.154  16.388  1.00  0.00     0.020 C 
ATOM     12  C   UNL     1      -2.795 -10.036  18.482  1.00  0.00     0.024 C 
ATOM     13  C   UNL     1      -3.923 -12.051  17.043  1.00  0.00     0.081 C 
ATOM     14  C   UNL     1      -3.623 -11.008  19.063  1.00  0.00     0.068 C 
ATOM     15  N   UNL     1      -4.196 -11.990  18.354  1.00  0.00    -0.313 NA
ATOM     16  H   UNL     1      -5.216 -11.887  18.452  1.00  0.00     0.122 HD
BRANCH  14  17
ATOM     17  C   UNL     1      -3.885 -11.029  20.588  1.00  0.00     0.076 C 
ATOM     18  C   UNL     1      -4.627  -9.761  21.043  1.00  0.00     0.022 C 
ATOM     19  C   UNL     1      -4.707 -12.273  20.968  1.00  0.00     0.022 C 
BRANCH  17  20
ATOM     20  C   UNL     1      -2.471 -11.084  21.401  1.00  0.00     0.395 C 
ATOM     21  F   UNL     1      -1.900  -9.880  21.426  1.00  0.00    -0.170 F 
ATOM     22  F   UNL     1      -2.612 -11.474  22.662  1.00  0.00    -0.170 F 
ATOM     23  F   UNL     1      -1.609 -11.925  20.840  1.00  0.00    -0.170 F 
ENDBRANCH  17  20
ENDBRANCH  14  17
ENDBRANCH   5  10
ENDBRANCH   1   3
BRANCH   1  24
ATOM     24  C   UNL     1       0.761  -6.414  13.294  1.00  0.00     0.261 C 
BRANCH  24  25
ATOM     25  O   UNL     1      -0.288  -5.920  12.907  1.00  0.00    -0.365 OA
ATOM     26  H   UNL     1      -0.764  -6.567  12.328  1.00  0.00     0.214 HD
ENDBRANCH  24  25
BRANCH  24  27
ATOM     27  N   UNL     1       1.966  -5.770  13.093  1.00  0.00    -0.259 NA
ATOM     28  C   UNL     1       3.056  -5.928  14.069  1.00  0.00     0.104 C 
ATOM     29  C   UNL     1       2.342  -4.902  11.966  1.00  0.00     0.089 C 
ATOM     30  C   UNL     1       4.227  -5.157  13.439  1.00  0.00     0.025 C 
ATOM     31  C   UNL     1       3.588  -4.200  12.459  1.00  0.00     0.017 C 
BRANCH  28  32
ATOM     32  C   UNL     1       2.707  -5.409  15.465  1.00  0.00     0.197 C 
BRANCH  32  33
ATOM     33  O   UNL     1       2.593  -4.196  15.667  1.00  0.00    -0.377 OA
ATOM     34  H   UNL     1       3.409  -3.732  15.354  1.00  0.00     0.212 HD
ENDBRANCH  32  33
BRANCH  32  35
ATOM     35  N   UNL     1       2.613  -6.311  16.428  1.00  0.00    -0.305 NA
ATOM     36  H   UNL     1       1.625  -6.428  16.694  1.00  0.00     0.121 HD
ATOM     37  H   UNL     1       2.988  -7.211  16.094  1.00  0.00     0.121 HD
ENDBRANCH  32  35
ENDBRANCH  28  32
ENDBRANCH  24  27
ENDBRANCH   1  24
TORSDOF 10
ENDMDL
MODEL 15
REMARK VINA RESULT:    -7.750      2.387      3.923
REMARK INTER + INTRA:         -12.784
REMARK INTER:                 -12.417
REMARK INTRA:                  -0.368
REMARK UNBOUND:                -1.183
REMARK SMILES C[C@H]1N[C@@H](N[C@@H](O)N2CCC[C@H]2[C@@H](N)O)S[C@@H]1[C@H]1CCN[C@H](C(C)(C)C(F)(F)F)C1
REMARK SMILES IDX 5 1 4 3 2 4 17 5 3 6 16 7 1 8 18 10 19 11 30 12 20 13 22 14
REMARK SMILES IDX 21 15 23 17 24 18 25 19 26 20 27 21 28 22 29 23 6 24 7 25
REMARK SMILES IDX 8 27 12 28 9 29 11 30 10 31 13 32 15 33 14 35
REMARK H PARENT 5 2 3 9 21 16 7 26 15 34 14 36 14 37
ROOT
ATOM      1  N   UNL     1       0.826  -7.309  12.411  1.00  0.00    -0.255 NA
ATOM      2  H   UNL     1       0.150  -6.599  12.095  1.00  0.00     0.129 HD
ENDROOT
BRANCH   1   3
ATOM      3  C   UNL     1       0.316  -7.806  13.595  1.00  0.00     0.185 C 
ATOM      4  C   UNL     1      -0.233  -7.764  15.738  1.00  0.00     0.066 C 
ATOM      5  C   UNL     1      -0.705  -9.039  15.444  1.00  0.00     0.069 C 
ATOM      6  N   UNL     1       0.334  -7.078  14.683  1.00  0.00    -0.290 NA
ATOM      7  S   UNL     1      -0.376  -9.380  13.762  1.00  0.00    -0.122 SA
ATOM      8  C   UNL     1      -0.309  -7.086  17.067  1.00  0.00     0.025 C 
ATOM      9  H   UNL     1      -0.196  -6.211  14.519  1.00  0.00     0.125 HD
BRANCH   5  10
ATOM     10  C   UNL     1      -1.367 -10.107  16.225  1.00  0.00     0.006 C 
ATOM     11  C   UNL     1      -1.559 -11.379  15.697  1.00  0.00     0.020 C 
ATOM     12  C   UNL     1      -1.784  -9.853  17.528  1.00  0.00     0.024 C 
ATOM     13  C   UNL     1      -2.198 -12.324  16.468  1.00  0.00     0.081 C 
ATOM     14  C   UNL     1      -2.408 -10.887  18.241  1.00  0.00     0.068 C 
ATOM     15  N   UNL     1      -2.632 -12.099  17.716  1.00  0.00    -0.313 NA
ATOM     16  H   UNL     1      -3.650 -12.255  17.722  1.00  0.00     0.122 HD
BRANCH  14  17
ATOM     17  C   UNL     1      -2.838 -10.696  19.716  1.00  0.00     0.076 C 
ATOM     18  C   UNL     1      -1.908 -11.463  20.670  1.00  0.00     0.022 C 
ATOM     19  C   UNL     1      -2.834  -9.201  20.081  1.00  0.00     0.022 C 
BRANCH  17  20
ATOM     20  C   UNL     1      -4.348 -11.272  19.941  1.00  0.00     0.395 C 
ATOM     21  F   UNL     1      -4.886 -11.638  18.778  1.00  0.00    -0.170 F 
ATOM     22  F   UNL     1      -4.385 -12.334  20.737  1.00  0.00    -0.170 F 
ATOM     23  F   UNL     1      -5.150 -10.364  20.485  1.00  0.00    -0.170 F 
ENDBRANCH  17  20
ENDBRANCH  14  17
ENDBRANCH   5  10
ENDBRANCH   1   3
BRANCH   1  24
ATOM     24  C   UNL     1       2.089  -6.713  12.279  1.00  0.00     0.261 C 
BRANCH  24  25
ATOM     25  O   UNL     1       2.374  -5.676  12.858  1.00  0.00    -0.365 OA
ATOM     26  H   UNL     1       3.330  -5.466  12.708  1.00  0.00     0.214 HD
ENDBRANCH  24  25
BRANCH  24  27
ATOM     27  N   UNL     1       3.008  -7.347  11.465  1.00  0.00    -0.259 NA
ATOM     28  C   UNL     1       2.597  -7.849  10.143  1.00  0.00     0.104 C 
ATOM     29  C   UNL     1       4.431  -7.599  11.745  1.00  0.00     0.089 C 
ATOM     30  C   UNL     1       3.903  -8.377   9.530  1.00  0.00     0.025 C 
ATOM     31  C   UNL     1       4.819  -8.628  10.705  1.00  0.00     0.017 C 
BRANCH  28  32
ATOM     32  C   UNL     1       1.512  -8.926  10.208  1.00  0.00     0.197 C 
BRANCH  32  33
ATOM     33  O   UNL     1       0.393  -8.711   9.733  1.00  0.00    -0.377 OA
ATOM     34  H   UNL     1       0.465  -8.032   9.016  1.00  0.00     0.212 HD
ENDBRANCH  32  33
BRANCH  32  35
ATOM     35  N   UNL     1       1.818 -10.039  10.854  1.00  0.00    -0.305 NA
ATOM     36  H   UNL     1       2.613 -10.499  10.387  1.00  0.00     0.121 HD
ATOM     37  H   UNL     1       2.075  -9.814  11.826  1.00  0.00     0.121 HD
ENDBRANCH  32  35
ENDBRANCH  28  32
ENDBRANCH  24  27
ENDBRANCH   1  24
TORSDOF 10
ENDMDL
MODEL 16
REMARK VINA RESULT:    -7.738      1.778      2.448
REMARK INTER + INTRA:         -12.766
REMARK INTER:                 -11.546
REMARK INTRA:                  -1.221
REMARK UNBOUND:                -1.183
REMARK SMILES C[C@H]1N[C@@H](N[C@@H](O)N2CCC[C@H]2[C@@H](N)O)S[C@@H]1[C@H]1CCN[C@H](C(C)(C)C(F)(F)F)C1
REMARK SMILES IDX 5 1 4 3 2 4 17 5 3 6 16 7 1 8 18 10 19 11 30 12 20 13 22 14
REMARK SMILES IDX 21 15 23 17 24 18 25 19 26 20 27 21 28 22 29 23 6 24 7 25
REMARK SMILES IDX 8 27 12 28 9 29 11 30 10 31 13 32 15 33 14 35
REMARK H PARENT 5 2 3 9 21 16 7 26 15 34 14 36 14 37
ROOT
ATOM      1  N   UNL     1       0.010  -9.965  13.988  1.00  0.00    -0.255 NA
ATOM      2  H   UNL     1      -0.149 -10.917  13.630  1.00  0.00     0.129 HD
ENDROOT
BRANCH   1   3
ATOM      3  C   UNL     1      -0.749  -9.869  15.139  1.00  0.00     0.185 C 
ATOM      4  C   UNL     1      -2.386 -10.389  16.533  1.00  0.00     0.066 C 
ATOM      5  C   UNL     1      -1.784  -9.400  17.305  1.00  0.00     0.069 C 
ATOM      6  N   UNL     1      -1.786 -10.646  15.317  1.00  0.00    -0.290 NA
ATOM      7  S   UNL     1      -0.421  -8.756  16.420  1.00  0.00    -0.122 SA
ATOM      8  C   UNL     1      -3.588 -11.190  16.917  1.00  0.00     0.025 C 
ATOM      9  H   UNL     1      -1.480 -11.629  15.292  1.00  0.00     0.125 HD
BRANCH   5  10
ATOM     10  C   UNL     1      -2.062  -8.805  18.631  1.00  0.00     0.006 C 
ATOM     11  C   UNL     1      -2.001  -7.430  18.835  1.00  0.00     0.020 C 
ATOM     12  C   UNL     1      -2.420  -9.625  19.696  1.00  0.00     0.024 C 
ATOM     13  C   UNL     1      -2.252  -6.939  20.097  1.00  0.00     0.081 C 
ATOM     14  C   UNL     1      -2.677  -9.029  20.939  1.00  0.00     0.068 C 
ATOM     15  N   UNL     1      -2.576  -7.708  21.145  1.00  0.00    -0.313 NA
ATOM     16  H   UNL     1      -1.857  -7.563  21.868  1.00  0.00     0.122 HD
BRANCH  14  17
ATOM     17  C   UNL     1      -3.145  -9.872  22.150  1.00  0.00     0.076 C 
ATOM     18  C   UNL     1      -2.043 -10.836  22.617  1.00  0.00     0.022 C 
ATOM     19  C   UNL     1      -3.554  -8.950  23.312  1.00  0.00     0.022 C 
BRANCH  17  20
ATOM     20  C   UNL     1      -4.440 -10.776  21.737  1.00  0.00     0.395 C 
ATOM     21  F   UNL     1      -5.172 -10.151  20.816  1.00  0.00    -0.170 F 
ATOM     22  F   UNL     1      -4.107 -11.958  21.233  1.00  0.00    -0.170 F 
ATOM     23  F   UNL     1      -5.228 -11.019  22.778  1.00  0.00    -0.170 F 
ENDBRANCH  17  20
ENDBRANCH  14  17
ENDBRANCH   5  10
ENDBRANCH   1   3
BRANCH   1  24
ATOM     24  C   UNL     1      -0.122  -9.116  12.879  1.00  0.00     0.261 C 
BRANCH  24  25
ATOM     25  O   UNL     1      -1.180  -9.002  12.280  1.00  0.00    -0.365 OA
ATOM     26  H   UNL     1      -1.654  -9.872  12.277  1.00  0.00     0.214 HD
ENDBRANCH  24  25
BRANCH  24  27
ATOM     27  N   UNL     1       0.998  -8.409  12.484  1.00  0.00    -0.259 NA
ATOM     28  C   UNL     1       1.488  -7.290  13.306  1.00  0.00     0.104 C 
ATOM     29  C   UNL     1       1.827  -8.635  11.290  1.00  0.00     0.089 C 
ATOM     30  C   UNL     1       2.777  -6.851  12.594  1.00  0.00     0.025 C 
ATOM     31  C   UNL     1       2.643  -7.366  11.180  1.00  0.00     0.017 C 
BRANCH  28  32
ATOM     32  C   UNL     1       0.483  -6.144  13.441  1.00  0.00     0.197 C 
BRANCH  32  33
ATOM     33  O   UNL     1      -0.080  -5.689  12.441  1.00  0.00    -0.377 OA
ATOM     34  H   UNL     1       0.599  -5.330  11.816  1.00  0.00     0.212 HD
ENDBRANCH  32  33
BRANCH  32  35
ATOM     35  N   UNL     1       0.319  -5.638  14.653  1.00  0.00    -0.305 NA
ATOM     36  H   UNL     1      -0.656  -5.777  14.953  1.00  0.00     0.121 HD
ATOM     37  H   UNL     1       0.952  -6.113  15.312  1.00  0.00     0.121 HD
ENDBRANCH  32  35
ENDBRANCH  28  32
ENDBRANCH  24  27
ENDBRANCH   1  24
TORSDOF 10
ENDMDL
MODEL 17
REMARK VINA RESULT:    -7.725      1.418      2.093
REMARK INTER + INTRA:         -12.747
REMARK INTER:                 -11.302
REMARK INTRA:                  -1.445
REMARK UNBOUND:                -1.183
REMARK SMILES C[C@H]1N[C@@H](N[C@@H](O)N2CCC[C@H]2[C@@H](N)O)S[C@@H]1[C@H]1CCN[C@H](C(C)(C)C(F)(F)F)C1
REMARK SMILES IDX 5 1 4 3 2 4 17 5 3 6 16 7 1 8 18 10 19 11 30 12 20 13 22 14
REMARK SMILES IDX 21 15 23 17 24 18 25 19 26 20 27 21 28 22 29 23 6 24 7 25
REMARK SMILES IDX 8 27 12 28 9 29 11 30 10 31 13 32 15 33 14 35
REMARK H PARENT 5 2 3 9 21 16 7 26 15 34 14 36 14 37
ROOT
ATOM      1  N   UNL     1      -0.036  -9.976  13.992  1.00  0.00    -0.255 NA
ATOM      2  H   UNL     1      -0.321 -10.903  13.645  1.00  0.00     0.129 HD
ENDROOT
BRANCH   1   3
ATOM      3  C   UNL     1      -0.700  -9.807  15.192  1.00  0.00     0.185 C 
ATOM      4  C   UNL     1      -2.233 -10.221  16.732  1.00  0.00     0.066 C 
ATOM      5  C   UNL     1      -1.554  -9.209  17.404  1.00  0.00     0.069 C 
ATOM      6  N   UNL     1      -1.735 -10.551  15.488  1.00  0.00    -0.290 NA
ATOM      7  S   UNL     1      -0.253  -8.640  16.385  1.00  0.00    -0.122 SA
ATOM      8  C   UNL     1      -3.415 -10.975  17.248  1.00  0.00     0.025 C 
ATOM      9  H   UNL     1      -1.450 -11.540  15.490  1.00  0.00     0.125 HD
BRANCH   5  10
ATOM     10  C   UNL     1      -1.716  -8.543  18.716  1.00  0.00     0.006 C 
ATOM     11  C   UNL     1      -1.941  -7.174  18.810  1.00  0.00     0.020 C 
ATOM     12  C   UNL     1      -1.673  -9.297  19.884  1.00  0.00     0.024 C 
ATOM     13  C   UNL     1      -2.065  -6.610  20.060  1.00  0.00     0.081 C 
ATOM     14  C   UNL     1      -1.830  -8.635  21.111  1.00  0.00     0.068 C 
ATOM     15  N   UNL     1      -2.004  -7.309  21.203  1.00  0.00    -0.313 NA
ATOM     16  H   UNL     1      -1.218  -6.933  21.753  1.00  0.00     0.122 HD
BRANCH  14  17
ATOM     17  C   UNL     1      -1.860  -9.418  22.446  1.00  0.00     0.076 C 
ATOM     18  C   UNL     1      -2.737  -8.707  23.488  1.00  0.00     0.022 C 
ATOM     19  C   UNL     1      -2.387 -10.845  22.212  1.00  0.00     0.022 C 
BRANCH  17  20
ATOM     20  C   UNL     1      -0.355  -9.526  23.067  1.00  0.00     0.395 C 
ATOM     21  F   UNL     1      -0.295  -8.922  24.253  1.00  0.00    -0.170 F 
ATOM     22  F   UNL     1       0.043 -10.780  23.249  1.00  0.00    -0.170 F 
ATOM     23  F   UNL     1       0.550  -8.955  22.280  1.00  0.00    -0.170 F 
ENDBRANCH  17  20
ENDBRANCH  14  17
ENDBRANCH   5  10
ENDBRANCH   1   3
BRANCH   1  24
ATOM     24  C   UNL     1      -0.149  -9.110  12.894  1.00  0.00     0.261 C 
BRANCH  24  25
ATOM     25  O   UNL     1      -1.209  -8.952  12.307  1.00  0.00    -0.365 OA
ATOM     26  H   UNL     1      -1.341  -9.690  11.660  1.00  0.00     0.214 HD
ENDBRANCH  24  25
BRANCH  24  27
ATOM     27  N   UNL     1       0.990  -8.436  12.497  1.00  0.00    -0.259 NA
ATOM     28  C   UNL     1       1.539  -7.360  13.338  1.00  0.00     0.104 C 
ATOM     29  C   UNL     1       1.788  -8.663  11.281  1.00  0.00     0.089 C 
ATOM     30  C   UNL     1       2.831  -6.953  12.613  1.00  0.00     0.025 C 
ATOM     31  C   UNL     1       2.652  -7.424  11.189  1.00  0.00     0.017 C 
BRANCH  28  32
ATOM     32  C   UNL     1       0.583  -6.180  13.522  1.00  0.00     0.197 C 
BRANCH  32  33
ATOM     33  O   UNL     1      -0.222  -5.887  12.633  1.00  0.00    -0.377 OA
ATOM     34  H   UNL     1      -0.148  -6.541  11.893  1.00  0.00     0.212 HD
ENDBRANCH  32  33
BRANCH  32  35
ATOM     35  N   UNL     1       0.723  -5.469  14.629  1.00  0.00    -0.305 NA
ATOM     36  H   UNL     1      -0.126  -5.561  15.205  1.00  0.00     0.121 HD
ATOM     37  H   UNL     1       1.536  -5.815  15.159  1.00  0.00     0.121 HD
ENDBRANCH  32  35
ENDBRANCH  28  32
ENDBRANCH  24  27
ENDBRANCH   1  24
TORSDOF 10
ENDMDL
MODEL 18
REMARK VINA RESULT:    -7.655      1.531      2.147
REMARK INTER + INTRA:         -12.642
REMARK INTER:                 -11.465
REMARK INTRA:                  -1.178
REMARK UNBOUND:                -1.183
REMARK SMILES C[C@H]1N[C@@H](N[C@@H](O)N2CCC[C@H]2[C@@H](N)O)S[C@@H]1[C@H]1CCN[C@H](C(C)(C)C(F)(F)F)C1
REMARK SMILES IDX 5 1 4 3 2 4 17 5 3 6 16 7 1 8 18 10 19 11 30 12 20 13 22 14
REMARK SMILES IDX 21 15 23 17 24 18 25 19 26 20 27 21 28 22 29 23 6 24 7 25
REMARK SMILES IDX 8 27 12 28 9 29 11 30 10 31 13 32 15 33 14 35
REMARK H PARENT 5 2 3 9 21 16 7 26 15 34 14 36 14 37
ROOT
ATOM      1  N   UNL     1       0.589  -6.841  14.586  1.00  0.00    -0.255 NA
ATOM      2  H   UNL     1       1.577  -7.022  14.812  1.00  0.00     0.129 HD
ENDROOT
BRANCH   1   3
ATOM      3  C   UNL     1      -0.131  -7.799  15.274  1.00  0.00     0.185 C 
ATOM      4  C   UNL     1      -1.071  -9.774  15.604  1.00  0.00     0.066 C 
ATOM      5  C   UNL     1      -1.408  -9.195  16.824  1.00  0.00     0.069 C 
ATOM      6  N   UNL     1      -0.345  -8.976  14.744  1.00  0.00    -0.290 NA
ATOM      7  S   UNL     1      -0.800  -7.557  16.848  1.00  0.00    -0.122 SA
ATOM      8  C   UNL     1      -1.406 -11.165  15.172  1.00  0.00     0.025 C 
ATOM      9  H   UNL     1       0.559  -9.427  14.546  1.00  0.00     0.125 HD
BRANCH   5  10
ATOM     10  C   UNL     1      -2.152  -9.651  18.019  1.00  0.00     0.006 C 
ATOM     11  C   UNL     1      -3.254 -10.492  17.910  1.00  0.00     0.020 C 
ATOM     12  C   UNL     1      -1.732  -9.257  19.286  1.00  0.00     0.024 C 
ATOM     13  C   UNL     1      -3.915 -10.865  19.059  1.00  0.00     0.081 C 
ATOM     14  C   UNL     1      -2.460  -9.706  20.398  1.00  0.00     0.068 C 
ATOM     15  N   UNL     1      -3.547 -10.482  20.289  1.00  0.00    -0.313 NA
ATOM     16  H   UNL     1      -4.337  -9.965  20.701  1.00  0.00     0.122 HD
BRANCH  14  17
ATOM     17  C   UNL     1      -2.011  -9.363  21.840  1.00  0.00     0.076 C 
ATOM     18  C   UNL     1      -0.908  -8.292  21.840  1.00  0.00     0.022 C 
ATOM     19  C   UNL     1      -3.212  -8.871  22.666  1.00  0.00     0.022 C 
BRANCH  17  20
ATOM     20  C   UNL     1      -1.401 -10.690  22.568  1.00  0.00     0.395 C 
ATOM     21  F   UNL     1      -2.342 -11.306  23.282  1.00  0.00    -0.170 F 
ATOM     22  F   UNL     1      -0.922 -11.581  21.707  1.00  0.00    -0.170 F 
ATOM     23  F   UNL     1      -0.404 -10.390  23.392  1.00  0.00    -0.170 F 
ENDBRANCH  17  20
ENDBRANCH  14  17
ENDBRANCH   5  10
ENDBRANCH   1   3
BRANCH   1  24
ATOM     24  C   UNL     1       0.545  -6.662  13.196  1.00  0.00     0.261 C 
BRANCH  24  25
ATOM     25  O   UNL     1      -0.325  -5.990  12.661  1.00  0.00    -0.365 OA
ATOM     26  H   UNL     1      -0.855  -5.523  13.356  1.00  0.00     0.214 HD
ENDBRANCH  24  25
BRANCH  24  27
ATOM     27  N   UNL     1       1.528  -7.277  12.445  1.00  0.00    -0.259 NA
ATOM     28  C   UNL     1       2.877  -6.691  12.378  1.00  0.00     0.104 C 
ATOM     29  C   UNL     1       1.415  -8.518  11.663  1.00  0.00     0.089 C 
ATOM     30  C   UNL     1       3.677  -7.709  11.550  1.00  0.00     0.025 C 
ATOM     31  C   UNL     1       2.642  -8.493  10.778  1.00  0.00     0.017 C 
BRANCH  28  32
ATOM     32  C   UNL     1       2.905  -5.292  11.758  1.00  0.00     0.197 C 
BRANCH  32  33
ATOM     33  O   UNL     1       2.900  -5.156  10.531  1.00  0.00    -0.377 OA
ATOM     34  H   UNL     1       3.255  -5.977  10.107  1.00  0.00     0.212 HD
ENDBRANCH  32  33
BRANCH  32  35
ATOM     35  N   UNL     1       3.008  -4.273  12.595  1.00  0.00    -0.305 NA
ATOM     36  H   UNL     1       2.457  -3.480  12.240  1.00  0.00     0.121 HD
ATOM     37  H   UNL     1       2.652  -4.552  13.521  1.00  0.00     0.121 HD
ENDBRANCH  32  35
ENDBRANCH  28  32
ENDBRANCH  24  27
ENDBRANCH   1  24
TORSDOF 10
ENDMDL
MODEL 19
REMARK VINA RESULT:    -7.629      3.608      5.340
REMARK INTER + INTRA:         -12.603
REMARK INTER:                 -11.488
REMARK INTRA:                  -1.116
REMARK UNBOUND:                -1.183
REMARK SMILES C[C@H]1N[C@@H](N[C@@H](O)N2CCC[C@H]2[C@@H](N)O)S[C@@H]1[C@H]1CCN[C@H](C(C)(C)C(F)(F)F)C1
REMARK SMILES IDX 5 1 4 3 2 4 17 5 3 6 16 7 1 8 18 10 19 11 30 12 20 13 22 14
REMARK SMILES IDX 21 15 23 17 24 18 25 19 26 20 27 21 28 22 29 23 6 24 7 25
REMARK SMILES IDX 8 27 12 28 9 29 11 30 10 31 13 32 15 33 14 35
REMARK H PARENT 5 2 3 9 21 16 7 26 15 34 14 36 14 37
ROOT
ATOM      1  N   UNL     1       1.858  -6.957  12.134  1.00  0.00    -0.255 NA
ATOM      2  H   UNL     1       1.815  -5.945  11.950  1.00  0.00     0.129 HD
ENDROOT
BRANCH   1   3
ATOM      3  C   UNL     1       1.317  -7.130  13.393  1.00  0.00     0.185 C 
ATOM      4  C   UNL     1       1.103  -6.787  15.569  1.00  0.00     0.066 C 
ATOM      5  C   UNL     1       0.061  -7.696  15.414  1.00  0.00     0.069 C 
ATOM      6  N   UNL     1       1.798  -6.473  14.418  1.00  0.00    -0.290 NA
ATOM      7  S   UNL     1      -0.004  -8.189  13.739  1.00  0.00    -0.122 SA
ATOM      8  C   UNL     1       1.506  -6.124  16.846  1.00  0.00     0.025 C 
ATOM      9  H   UNL     1       1.716  -5.462  14.240  1.00  0.00     0.125 HD
BRANCH   5  10
ATOM     10  C   UNL     1      -0.926  -8.309  16.331  1.00  0.00     0.006 C 
ATOM     11  C   UNL     1      -1.444  -7.607  17.413  1.00  0.00     0.020 C 
ATOM     12  C   UNL     1      -1.373  -9.606  16.098  1.00  0.00     0.024 C 
ATOM     13  C   UNL     1      -2.345  -8.240  18.240  1.00  0.00     0.081 C 
ATOM     14  C   UNL     1      -2.307 -10.158  16.985  1.00  0.00     0.068 C 
ATOM     15  N   UNL     1      -2.774  -9.496  18.053  1.00  0.00    -0.313 NA
ATOM     16  H   UNL     1      -2.516 -10.038  18.889  1.00  0.00     0.122 HD
BRANCH  14  17
ATOM     17  C   UNL     1      -2.899 -11.570  16.750  1.00  0.00     0.076 C 
ATOM     18  C   UNL     1      -1.790 -12.632  16.671  1.00  0.00     0.022 C 
ATOM     19  C   UNL     1      -3.881 -11.929  17.879  1.00  0.00     0.022 C 
BRANCH  17  20
ATOM     20  C   UNL     1      -3.712 -11.609  15.335  1.00  0.00     0.395 C 
ATOM     21  F   UNL     1      -4.372 -12.759  15.208  1.00  0.00    -0.170 F 
ATOM     22  F   UNL     1      -4.605 -10.633  15.223  1.00  0.00    -0.170 F 
ATOM     23  F   UNL     1      -2.898 -11.496  14.292  1.00  0.00    -0.170 F 
ENDBRANCH  17  20
ENDBRANCH  14  17
ENDBRANCH   5  10
ENDBRANCH   1   3
BRANCH   1  24
ATOM     24  C   UNL     1       3.152  -7.355  11.766  1.00  0.00     0.261 C 
BRANCH  24  25
ATOM     25  O   UNL     1       4.102  -7.229  12.523  1.00  0.00    -0.365 OA
ATOM     26  H   UNL     1       4.550  -8.104  12.639  1.00  0.00     0.214 HD
ENDBRANCH  24  25
BRANCH  24  27
ATOM     27  N   UNL     1       3.315  -7.898  10.506  1.00  0.00    -0.259 NA
ATOM     28  C   UNL     1       2.137  -8.301   9.721  1.00  0.00     0.104 C 
ATOM     29  C   UNL     1       4.577  -8.136   9.788  1.00  0.00     0.089 C 
ATOM     30  C   UNL     1       2.729  -8.746   8.374  1.00  0.00     0.025 C 
ATOM     31  C   UNL     1       4.176  -9.068   8.666  1.00  0.00     0.017 C 
BRANCH  28  32
ATOM     32  C   UNL     1       1.310  -9.406  10.382  1.00  0.00     0.197 C 
BRANCH  32  33
ATOM     33  O   UNL     1       1.858 -10.437  10.784  1.00  0.00    -0.377 OA
ATOM     34  H   UNL     1       2.725 -10.552  10.320  1.00  0.00     0.212 HD
ENDBRANCH  32  33
BRANCH  32  35
ATOM     35  N   UNL     1       0.001  -9.223  10.425  1.00  0.00    -0.305 NA
ATOM     36  H   UNL     1      -0.454 -10.078  10.776  1.00  0.00     0.121 HD
ATOM     37  H   UNL     1      -0.216  -8.436  11.053  1.00  0.00     0.121 HD
ENDBRANCH  32  35
ENDBRANCH  28  32
ENDBRANCH  24  27
ENDBRANCH   1  24
TORSDOF 10
ENDMDL
MODEL 20
REMARK VINA RESULT:    -7.618      3.361      4.300
REMARK INTER + INTRA:         -12.587
REMARK INTER:                 -11.410
REMARK INTRA:                  -1.177
REMARK UNBOUND:                -1.183
REMARK SMILES C[C@H]1N[C@@H](N[C@@H](O)N2CCC[C@H]2[C@@H](N)O)S[C@@H]1[C@H]1CCN[C@H](C(C)(C)C(F)(F)F)C1
REMARK SMILES IDX 5 1 4 3 2 4 17 5 3 6 16 7 1 8 18 10 19 11 30 12 20 13 22 14
REMARK SMILES IDX 21 15 23 17 24 18 25 19 26 20 27 21 28 22 29 23 6 24 7 25
REMARK SMILES IDX 8 27 12 28 9 29 11 30 10 31 13 32 15 33 14 35
REMARK H PARENT 5 2 3 9 21 16 7 26 15 34 14 36 14 37
ROOT
ATOM      1  N   UNL     1       0.665  -8.091  12.239  1.00  0.00    -0.255 NA
ATOM      2  H   UNL     1       1.615  -7.774  12.483  1.00  0.00     0.129 HD
ENDROOT
BRANCH   1   3
ATOM      3  C   UNL     1       0.087  -8.484  13.431  1.00  0.00     0.185 C 
ATOM      4  C   UNL     1      -0.955  -9.855  14.820  1.00  0.00     0.066 C 
ATOM      5  C   UNL     1      -0.786  -8.787  15.695  1.00  0.00     0.069 C 
ATOM      6  N   UNL     1      -0.450  -9.672  13.548  1.00  0.00    -0.290 NA
ATOM      7  S   UNL     1       0.016  -7.490  14.842  1.00  0.00    -0.122 SA
ATOM      8  C   UNL     1      -1.602 -11.162  15.146  1.00  0.00     0.025 C 
ATOM      9  H   UNL     1       0.267 -10.387  13.363  1.00  0.00     0.125 HD
BRANCH   5  10
ATOM     10  C   UNL     1      -1.150  -8.534  17.107  1.00  0.00     0.006 C 
ATOM     11  C   UNL     1      -1.644  -9.548  17.921  1.00  0.00     0.020 C 
ATOM     12  C   UNL     1      -0.972  -7.266  17.651  1.00  0.00     0.024 C 
ATOM     13  C   UNL     1      -1.982  -9.246  19.221  1.00  0.00     0.081 C 
ATOM     14  C   UNL     1      -1.327  -7.060  18.992  1.00  0.00     0.068 C 
ATOM     15  N   UNL     1      -1.842  -8.027  19.763  1.00  0.00    -0.313 NA
ATOM     16  H   UNL     1      -2.776  -7.716  20.065  1.00  0.00     0.122 HD
BRANCH  14  17
ATOM     17  C   UNL     1      -1.093  -5.694  19.681  1.00  0.00     0.076 C 
ATOM     18  C   UNL     1      -1.339  -5.786  21.196  1.00  0.00     0.022 C 
ATOM     19  C   UNL     1       0.342  -5.205  19.418  1.00  0.00     0.022 C 
BRANCH  17  20
ATOM     20  C   UNL     1      -2.128  -4.581  19.086  1.00  0.00     0.395 C 
ATOM     21  F   UNL     1      -1.595  -3.963  18.033  1.00  0.00    -0.170 F 
ATOM     22  F   UNL     1      -3.281  -5.105  18.687  1.00  0.00    -0.170 F 
ATOM     23  F   UNL     1      -2.428  -3.651  19.986  1.00  0.00    -0.170 F 
ENDBRANCH  17  20
ENDBRANCH  14  17
ENDBRANCH   5  10
ENDBRANCH   1   3
BRANCH   1  24
ATOM     24  C   UNL     1       0.820  -8.924  11.120  1.00  0.00     0.261 C 
BRANCH  24  25
ATOM     25  O   UNL     1      -0.141  -9.332  10.486  1.00  0.00    -0.365 OA
ATOM     26  H   UNL     1       0.171  -9.727   9.633  1.00  0.00     0.214 HD
ENDBRANCH  24  25
BRANCH  24  27
ATOM     27  N   UNL     1       2.109  -9.268  10.758  1.00  0.00    -0.259 NA
ATOM     28  C   UNL     1       3.149  -8.230  10.667  1.00  0.00     0.104 C 
ATOM     29  C   UNL     1       2.623 -10.609  10.441  1.00  0.00     0.089 C 
ATOM     30  C   UNL     1       4.427  -9.021  10.349  1.00  0.00     0.025 C 
ATOM     31  C   UNL     1       3.948 -10.330   9.766  1.00  0.00     0.017 C 
BRANCH  28  32
ATOM     32  C   UNL     1       2.854  -7.159   9.615  1.00  0.00     0.197 C 
BRANCH  32  33
ATOM     33  O   UNL     1       2.584  -7.485   8.455  1.00  0.00    -0.377 OA
ATOM     34  H   UNL     1       3.362  -7.298   7.871  1.00  0.00     0.212 HD
ENDBRANCH  32  33
BRANCH  32  35
ATOM     35  N   UNL     1       2.977  -5.899   9.999  1.00  0.00    -0.305 NA
ATOM     36  H   UNL     1       2.969  -5.851  11.028  1.00  0.00     0.121 HD
ATOM     37  H   UNL     1       3.865  -5.517   9.644  1.00  0.00     0.121 HD
ENDBRANCH  32  35
ENDBRANCH  28  32
ENDBRANCH  24  27
ENDBRANCH   1  24
TORSDOF 10
ENDMDL
