MODEL 1
REMARK VINA RESULT:    -9.871      0.000      0.000
REMARK INTER + INTRA:         -11.347
REMARK INTER:                 -11.025
REMARK INTRA:                  -0.322
REMARK UNBOUND:                -0.322
REMARK SMILES O=C(N[C@H]1CN2CCC1CC2)c1cc2cccc(Cl)c2s1
REMARK SMILES IDX 12 1 13 2 14 3 20 4 18 5 17 6 16 7 15 8 21 9 19 10 2 11 3 12
REMARK SMILES IDX 1 13 4 15 9 16 5 17 8 18 10 19 6 20 7 21 11 22
REMARK H PARENT 3 14
ROOT
ATOM      1  C   UNL     1     143.916 138.469  90.704  1.00  0.00     0.093 A 
ATOM      2  C   UNL     1     143.423 137.238  90.975  1.00  0.00     0.034 A 
ATOM      3  C   UNL     1     144.321 136.187  91.360  1.00  0.00    -0.005 A 
ATOM      4  C   UNL     1     145.696 136.606  91.412  1.00  0.00     0.054 A 
ATOM      5  C   UNL     1     146.670 135.704  91.767  1.00  0.00     0.058 A 
ATOM      6  C   UNL     1     146.319 134.386  92.077  1.00  0.00     0.022 A 
ATOM      7  C   UNL     1     144.974 133.981  92.024  1.00  0.00     0.002 A 
ATOM      8  C   UNL     1     143.984 134.895  91.663  1.00  0.00     0.010 A 
ATOM      9  S   UNL     1     145.637 138.360  90.937  1.00  0.00    -0.128 S 
ATOM     10  Cl  UNL     1     148.378 136.212  91.834  1.00  0.00    -0.083 Cl
ENDROOT
BRANCH   1  11
ATOM     11  C   UNL     1     143.093 139.691  90.280  1.00  0.00     0.261 C 
ATOM     12  N   UNL     1     141.648 139.613  90.193  1.00  0.00    -0.347 N 
ATOM     13  O   UNL     1     143.645 140.706  90.018  1.00  0.00    -0.268 OA
ATOM     14  H   UNL     1     141.183 138.772  90.406  1.00  0.00     0.164 HD
BRANCH  12  15
ATOM     15  C   UNL     1     140.878 140.808  89.780  1.00  0.00     0.099 C 
ATOM     16  C   UNL     1     139.634 140.888  90.540  1.00  0.00     0.015 C 
ATOM     17  C   UNL     1     140.522 140.713  88.283  1.00  0.00     0.109 C 
ATOM     18  C   UNL     1     138.891 142.030  90.084  1.00  0.00     0.021 C 
ATOM     19  C   UNL     1     138.848 139.688  90.264  1.00  0.00     0.021 C 
ATOM     20  N   UNL     1     139.139 140.761  88.087  1.00  0.00    -0.301 NA
ATOM     21  C   UNL     1     138.621 141.924  88.612  1.00  0.00     0.085 C 
ATOM     22  C   UNL     1     138.530 139.650  88.721  1.00  0.00     0.085 C 
ENDBRANCH  12  15
ENDBRANCH   1  11
TORSDOF 2
ENDMDL
MODEL 2
REMARK VINA RESULT:    -9.106      1.323      1.881
REMARK INTER + INTRA:         -10.493
REMARK INTER:                 -10.189
REMARK INTRA:                  -0.304
REMARK UNBOUND:                -0.322
REMARK SMILES O=C(N[C@H]1CN2CCC1CC2)c1cc2cccc(Cl)c2s1
REMARK SMILES IDX 12 1 13 2 14 3 20 4 18 5 17 6 16 7 15 8 21 9 19 10 2 11 3 12
REMARK SMILES IDX 1 13 4 15 9 16 5 17 8 18 10 19 6 20 7 21 11 22
REMARK H PARENT 3 14
ROOT
ATOM      1  C   UNL     1     144.249 138.658  90.690  1.00  0.00     0.093 A 
ATOM      2  C   UNL     1     145.584 138.721  90.903  1.00  0.00     0.034 A 
ATOM      3  C   UNL     1     146.285 137.547  91.340  1.00  0.00    -0.005 A 
ATOM      4  C   UNL     1     145.430 136.401  91.498  1.00  0.00     0.054 A 
ATOM      5  C   UNL     1     145.965 135.204  91.911  1.00  0.00     0.058 A 
ATOM      6  C   UNL     1     147.335 135.107  92.174  1.00  0.00     0.022 A 
ATOM      7  C   UNL     1     148.167 136.230  92.019  1.00  0.00     0.002 A 
ATOM      8  C   UNL     1     147.626 137.446  91.600  1.00  0.00     0.010 A 
ATOM      9  S   UNL     1     143.781 137.020  91.047  1.00  0.00    -0.128 S 
ATOM     10  Cl  UNL     1     144.914 133.778  92.111  1.00  0.00    -0.083 Cl
ENDROOT
BRANCH   1  11
ATOM     11  C   UNL     1     143.360 139.817  90.227  1.00  0.00     0.261 C 
ATOM     12  N   UNL     1     141.931 139.631  90.065  1.00  0.00    -0.347 N 
ATOM     13  O   UNL     1     143.846 140.872  89.997  1.00  0.00    -0.268 OA
ATOM     14  H   UNL     1     141.520 138.756  90.252  1.00  0.00     0.164 HD
BRANCH  12  15
ATOM     15  C   UNL     1     141.095 140.767  89.616  1.00  0.00     0.099 C 
ATOM     16  C   UNL     1     139.886 140.851  90.430  1.00  0.00     0.015 C 
ATOM     17  C   UNL     1     140.673 140.562  88.148  1.00  0.00     0.109 C 
ATOM     18  C   UNL     1     139.078 141.932  89.939  1.00  0.00     0.021 C 
ATOM     19  C   UNL     1     139.137 139.607  90.270  1.00  0.00     0.021 C 
ATOM     20  N   UNL     1     139.282 140.545  88.018  1.00  0.00    -0.301 NA
ATOM     21  C   UNL     1     138.742 141.721  88.493  1.00  0.00     0.085 C 
ATOM     22  C   UNL     1     138.748 139.457  88.750  1.00  0.00     0.085 C 
ENDBRANCH  12  15
ENDBRANCH   1  11
TORSDOF 2
ENDMDL
MODEL 3
REMARK VINA RESULT:    -9.091      0.802      1.001
REMARK INTER + INTRA:         -10.476
REMARK INTER:                 -10.359
REMARK INTRA:                  -0.116
REMARK UNBOUND:                -0.322
REMARK SMILES O=C(N[C@H]1CN2CCC1CC2)c1cc2cccc(Cl)c2s1
REMARK SMILES IDX 12 1 13 2 14 3 20 4 18 5 17 6 16 7 15 8 21 9 19 10 2 11 3 12
REMARK SMILES IDX 1 13 4 15 9 16 5 17 8 18 10 19 6 20 7 21 11 22
REMARK H PARENT 3 14
ROOT
ATOM      1  C   UNL     1     143.502 138.236  91.170  1.00  0.00     0.093 A 
ATOM      2  C   UNL     1     143.217 136.921  91.317  1.00  0.00     0.034 A 
ATOM      3  C   UNL     1     144.283 135.991  91.559  1.00  0.00    -0.005 A 
ATOM      4  C   UNL     1     145.577 136.615  91.619  1.00  0.00     0.054 A 
ATOM      5  C   UNL     1     146.694 135.846  91.847  1.00  0.00     0.058 A 
ATOM      6  C   UNL     1     146.564 134.464  92.019  1.00  0.00     0.022 A 
ATOM      7  C   UNL     1     145.298 133.859  91.959  1.00  0.00     0.002 A 
ATOM      8  C   UNL     1     144.163 134.637  91.728  1.00  0.00     0.010 A 
ATOM      9  S   UNL     1     145.228 138.377  91.342  1.00  0.00    -0.128 S 
ATOM     10  Cl  UNL     1     148.304 136.608  91.922  1.00  0.00    -0.083 Cl
ENDROOT
BRANCH   1  11
ATOM     11  C   UNL     1     142.482 139.350  90.905  1.00  0.00     0.261 C 
ATOM     12  N   UNL     1     141.212 139.052  90.273  1.00  0.00    -0.347 N 
ATOM     13  O   UNL     1     142.737 140.463  91.218  1.00  0.00    -0.268 OA
ATOM     14  H   UNL     1     140.994 138.130  90.008  1.00  0.00     0.164 HD
BRANCH  12  15
ATOM     15  C   UNL     1     140.246 140.147  90.029  1.00  0.00     0.099 C 
ATOM     16  C   UNL     1     138.947 139.594  89.654  1.00  0.00     0.015 C 
ATOM     17  C   UNL     1     140.742 141.038  88.873  1.00  0.00     0.109 C 
ATOM     18  C   UNL     1     138.049 140.681  89.381  1.00  0.00     0.021 C 
ATOM     19  C   UNL     1     139.116 138.816  88.430  1.00  0.00     0.021 C 
ATOM     20  N   UNL     1     139.810 141.082  87.833  1.00  0.00    -0.301 NA
ATOM     21  C   UNL     1     138.600 141.554  88.293  1.00  0.00     0.085 C 
ATOM     22  C   UNL     1     139.632 139.783  87.297  1.00  0.00     0.085 C 
ENDBRANCH  12  15
ENDBRANCH   1  11
TORSDOF 2
ENDMDL
MODEL 4
REMARK VINA RESULT:    -8.563      1.497      2.174
REMARK INTER + INTRA:          -9.887
REMARK INTER:                  -9.597
REMARK INTRA:                  -0.289
REMARK UNBOUND:                -0.322
REMARK SMILES O=C(N[C@H]1CN2CCC1CC2)c1cc2cccc(Cl)c2s1
REMARK SMILES IDX 12 1 13 2 14 3 20 4 18 5 17 6 16 7 15 8 21 9 19 10 2 11 3 12
REMARK SMILES IDX 1 13 4 15 9 16 5 17 8 18 10 19 6 20 7 21 11 22
REMARK H PARENT 3 14
ROOT
ATOM      1  C   UNL     1     143.960 138.534  91.084  1.00  0.00     0.093 A 
ATOM      2  C   UNL     1     145.227 138.836  90.716  1.00  0.00     0.034 A 
ATOM      3  C   UNL     1     146.237 137.818  90.763  1.00  0.00    -0.005 A 
ATOM      4  C   UNL     1     145.741 136.546  91.215  1.00  0.00     0.054 A 
ATOM      5  C   UNL     1     146.597 135.475  91.309  1.00  0.00     0.058 A 
ATOM      6  C   UNL     1     147.944 135.627  90.965  1.00  0.00     0.022 A 
ATOM      7  C   UNL     1     148.425 136.872  90.524  1.00  0.00     0.002 A 
ATOM      8  C   UNL     1     147.558 137.961  90.428  1.00  0.00     0.010 A 
ATOM      9  S   UNL     1     143.977 136.852  91.531  1.00  0.00    -0.128 S 
ATOM     10  Cl  UNL     1     145.993 133.894  91.870  1.00  0.00    -0.083 Cl
ENDROOT
BRANCH   1  11
ATOM     11  C   UNL     1     142.774 139.504  91.092  1.00  0.00     0.261 C 
ATOM     12  N   UNL     1     141.601 139.241  90.281  1.00  0.00    -0.347 N 
ATOM     13  O   UNL     1     142.818 140.477  91.766  1.00  0.00    -0.268 OA
ATOM     14  H   UNL     1     141.558 138.436  89.717  1.00  0.00     0.164 HD
BRANCH  12  15
ATOM     15  C   UNL     1     140.469 140.195  90.308  1.00  0.00     0.099 C 
ATOM     16  C   UNL     1     139.213 139.487  90.077  1.00  0.00     0.015 C 
ATOM     17  C   UNL     1     140.641 141.246  89.193  1.00  0.00     0.109 C 
ATOM     18  C   UNL     1     138.143 140.446  90.064  1.00  0.00     0.021 C 
ATOM     19  C   UNL     1     139.278 138.851  88.764  1.00  0.00     0.021 C 
ATOM     20  N   UNL     1     139.551 141.238  88.318  1.00  0.00    -0.301 NA
ATOM     21  C   UNL     1     138.382 141.482  89.005  1.00  0.00     0.085 C 
ATOM     22  C   UNL     1     139.463 139.978  87.678  1.00  0.00     0.085 C 
ENDBRANCH  12  15
ENDBRANCH   1  11
TORSDOF 2
ENDMDL
MODEL 5
REMARK VINA RESULT:    -7.959      1.786      2.285
REMARK INTER + INTRA:          -9.212
REMARK INTER:                  -8.900
REMARK INTRA:                  -0.312
REMARK UNBOUND:                -0.322
REMARK SMILES O=C(N[C@H]1CN2CCC1CC2)c1cc2cccc(Cl)c2s1
REMARK SMILES IDX 12 1 13 2 14 3 20 4 18 5 17 6 16 7 15 8 21 9 19 10 2 11 3 12
REMARK SMILES IDX 1 13 4 15 9 16 5 17 8 18 10 19 6 20 7 21 11 22
REMARK H PARENT 3 14
ROOT
ATOM      1  C   UNL     1     142.387 136.973  90.856  1.00  0.00     0.093 A 
ATOM      2  C   UNL     1     142.771 135.706  91.132  1.00  0.00     0.034 A 
ATOM      3  C   UNL     1     144.135 135.445  91.494  1.00  0.00    -0.005 A 
ATOM      4  C   UNL     1     144.952 136.629  91.519  1.00  0.00     0.054 A 
ATOM      5  C   UNL     1     146.282 136.532  91.851  1.00  0.00     0.058 A 
ATOM      6  C   UNL     1     146.833 135.285  92.163  1.00  0.00     0.022 A 
ATOM      7  C   UNL     1     146.032 134.131  92.136  1.00  0.00     0.002 A 
ATOM      8  C   UNL     1     144.681 134.226  91.799  1.00  0.00     0.010 A 
ATOM      9  S   UNL     1     143.806 137.961  91.053  1.00  0.00    -0.128 S 
ATOM     10  Cl  UNL     1     147.304 137.993  91.884  1.00  0.00    -0.083 Cl
ENDROOT
BRANCH   1  11
ATOM     11  C   UNL     1     140.975 137.414  90.453  1.00  0.00     0.261 C 
ATOM     12  N   UNL     1     140.665 138.818  90.270  1.00  0.00    -0.347 N 
ATOM     13  O   UNL     1     140.130 136.599  90.294  1.00  0.00    -0.268 OA
ATOM     14  H   UNL     1     141.361 139.502  90.403  1.00  0.00     0.164 HD
BRANCH  12  15
ATOM     15  C   UNL     1     139.293 139.217  89.882  1.00  0.00     0.099 C 
ATOM     16  C   UNL     1     139.275 139.657  88.490  1.00  0.00     0.015 C 
ATOM     17  C   UNL     1     138.816 140.388  90.763  1.00  0.00     0.109 C 
ATOM     18  C   UNL     1     137.942 140.079  88.160  1.00  0.00     0.021 C 
ATOM     19  C   UNL     1     140.167 140.806  88.360  1.00  0.00     0.021 C 
ATOM     20  N   UNL     1     138.483 141.502  89.988  1.00  0.00    -0.301 NA
ATOM     21  C   UNL     1     137.498 141.177  89.081  1.00  0.00     0.085 C 
ATOM     22  C   UNL     1     139.629 141.958  89.291  1.00  0.00     0.085 C 
ENDBRANCH  12  15
ENDBRANCH   1  11
TORSDOF 2
ENDMDL
MODEL 6
REMARK VINA RESULT:    -7.620      3.898      7.980
REMARK INTER + INTRA:          -8.833
REMARK INTER:                  -8.516
REMARK INTRA:                  -0.317
REMARK UNBOUND:                -0.322
REMARK SMILES O=C(N[C@H]1CN2CCC1CC2)c1cc2cccc(Cl)c2s1
REMARK SMILES IDX 12 1 13 2 14 3 20 4 18 5 17 6 16 7 15 8 21 9 19 10 2 11 3 12
REMARK SMILES IDX 1 13 4 15 9 16 5 17 8 18 10 19 6 20 7 21 11 22
REMARK H PARENT 3 14
ROOT
ATOM      1  C   UNL     1     144.051 138.588  91.403  1.00  0.00     0.093 A 
ATOM      2  C   UNL     1     143.125 137.618  91.218  1.00  0.00     0.034 A 
ATOM      3  C   UNL     1     141.845 137.960  90.666  1.00  0.00    -0.005 A 
ATOM      4  C   UNL     1     141.712 139.360  90.365  1.00  0.00     0.054 A 
ATOM      5  C   UNL     1     140.539 139.833  89.829  1.00  0.00     0.058 A 
ATOM      6  C   UNL     1     139.482 138.951  89.579  1.00  0.00     0.022 A 
ATOM      7  C   UNL     1     139.616 137.584  89.876  1.00  0.00     0.002 A 
ATOM      8  C   UNL     1     140.806 137.101  90.420  1.00  0.00     0.010 A 
ATOM      9  S   UNL     1     143.314 140.067  90.856  1.00  0.00    -0.128 S 
ATOM     10  Cl  UNL     1     140.362 141.567  89.453  1.00  0.00    -0.083 Cl
ENDROOT
BRANCH   1  11
ATOM     11  C   UNL     1     145.456 138.388  91.981  1.00  0.00     0.261 C 
ATOM     12  N   UNL     1     146.492 137.745  91.195  1.00  0.00    -0.347 N 
ATOM     13  O   UNL     1     145.696 138.760  93.079  1.00  0.00    -0.268 OA
ATOM     14  H   UNL     1     146.299 137.431  90.282  1.00  0.00     0.164 HD
BRANCH  12  15
ATOM     15  C   UNL     1     147.841 137.564  91.778  1.00  0.00     0.099 C 
ATOM     16  C   UNL     1     148.859 138.002  90.827  1.00  0.00     0.015 C 
ATOM     17  C   UNL     1     148.083 136.074  92.089  1.00  0.00     0.109 C 
ATOM     18  C   UNL     1     150.153 137.771  91.404  1.00  0.00     0.021 C 
ATOM     19  C   UNL     1     148.740 137.190  89.619  1.00  0.00     0.021 C 
ATOM     20  N   UNL     1     149.204 135.590  91.408  1.00  0.00    -0.301 NA
ATOM     21  C   UNL     1     150.322 136.320  91.747  1.00  0.00     0.085 C 
ATOM     22  C   UNL     1     148.989 135.683  90.011  1.00  0.00     0.085 C 
ENDBRANCH  12  15
ENDBRANCH   1  11
TORSDOF 2
ENDMDL
MODEL 7
REMARK VINA RESULT:    -7.515      3.919      8.129
REMARK INTER + INTRA:          -8.715
REMARK INTER:                  -8.412
REMARK INTRA:                  -0.304
REMARK UNBOUND:                -0.322
REMARK SMILES O=C(N[C@H]1CN2CCC1CC2)c1cc2cccc(Cl)c2s1
REMARK SMILES IDX 12 1 13 2 14 3 20 4 18 5 17 6 16 7 15 8 21 9 19 10 2 11 3 12
REMARK SMILES IDX 1 13 4 15 9 16 5 17 8 18 10 19 6 20 7 21 11 22
REMARK H PARENT 3 14
ROOT
ATOM      1  C   UNL     1     144.416 138.338  91.429  1.00  0.00     0.093 A 
ATOM      2  C   UNL     1     143.701 139.435  91.088  1.00  0.00     0.034 A 
ATOM      3  C   UNL     1     142.331 139.288  90.686  1.00  0.00    -0.005 A 
ATOM      4  C   UNL     1     141.879 137.923  90.703  1.00  0.00     0.054 A 
ATOM      5  C   UNL     1     140.586 137.629  90.342  1.00  0.00     0.058 A 
ATOM      6  C   UNL     1     139.718 138.658  89.962  1.00  0.00     0.022 A 
ATOM      7  C   UNL     1     140.165 139.991  89.945  1.00  0.00     0.002 A 
ATOM      8  C   UNL     1     141.477 140.291  90.311  1.00  0.00     0.010 A 
ATOM      9  S   UNL     1     143.336 136.985  91.253  1.00  0.00    -0.128 S 
ATOM     10  Cl  UNL     1     140.014 135.940  90.358  1.00  0.00    -0.083 Cl
ENDROOT
BRANCH   1  11
ATOM     11  C   UNL     1     145.883 138.327  91.876  1.00  0.00     0.261 C 
ATOM     12  N   UNL     1     146.913 137.789  91.010  1.00  0.00    -0.347 N 
ATOM     13  O   UNL     1     146.174 138.760  92.939  1.00  0.00    -0.268 OA
ATOM     14  H   UNL     1     146.679 137.425  90.126  1.00  0.00     0.164 HD
BRANCH  12  15
ATOM     15  C   UNL     1     148.322 137.790  91.467  1.00  0.00     0.099 C 
ATOM     16  C   UNL     1     149.209 138.103  90.350  1.00  0.00     0.015 C 
ATOM     17  C   UNL     1     148.701 136.397  92.007  1.00  0.00     0.109 C 
ATOM     18  C   UNL     1     150.567 138.051  90.816  1.00  0.00     0.021 C 
ATOM     19  C   UNL     1     149.035 137.079  89.323  1.00  0.00     0.021 C 
ATOM     20  N   UNL     1     149.783 135.859  91.305  1.00  0.00    -0.301 NA
ATOM     21  C   UNL     1     150.873 136.698  91.387  1.00  0.00     0.085 C 
ATOM     22  C   UNL     1     149.429 135.685  89.944  1.00  0.00     0.085 C 
ENDBRANCH  12  15
ENDBRANCH   1  11
TORSDOF 2
ENDMDL
MODEL 8
REMARK VINA RESULT:    -7.378      3.454      7.810
REMARK INTER + INTRA:          -8.563
REMARK INTER:                  -8.247
REMARK INTRA:                  -0.316
REMARK UNBOUND:                -0.322
REMARK SMILES O=C(N[C@H]1CN2CCC1CC2)c1cc2cccc(Cl)c2s1
REMARK SMILES IDX 12 1 13 2 14 3 20 4 18 5 17 6 16 7 15 8 21 9 19 10 2 11 3 12
REMARK SMILES IDX 1 13 4 15 9 16 5 17 8 18 10 19 6 20 7 21 11 22
REMARK H PARENT 3 14
ROOT
ATOM      1  C   UNL     1     142.833 139.931  90.271  1.00  0.00     0.093 A 
ATOM      2  C   UNL     1     141.744 140.269  91.000  1.00  0.00     0.034 A 
ATOM      3  C   UNL     1     140.470 140.393  90.351  1.00  0.00    -0.005 A 
ATOM      4  C   UNL     1     140.524 140.124  88.939  1.00  0.00     0.054 A 
ATOM      5  C   UNL     1     139.377 140.203  88.186  1.00  0.00     0.058 A 
ATOM      6  C   UNL     1     138.166 140.544  88.796  1.00  0.00     0.022 A 
ATOM      7  C   UNL     1     138.118 140.807  90.176  1.00  0.00     0.002 A 
ATOM      8  C   UNL     1     139.281 140.728  90.942  1.00  0.00     0.010 A 
ATOM      9  S   UNL     1     142.274 139.737  88.634  1.00  0.00    -0.128 S 
ATOM     10  Cl  UNL     1     139.433 139.872  86.435  1.00  0.00    -0.083 Cl
ENDROOT
BRANCH   1  11
ATOM     11  C   UNL     1     144.257 139.761  90.812  1.00  0.00     0.261 C 
ATOM     12  N   UNL     1     144.867 138.448  90.883  1.00  0.00    -0.347 N 
ATOM     13  O   UNL     1     144.861 140.712  91.177  1.00  0.00    -0.268 OA
ATOM     14  H   UNL     1     144.370 137.653  90.583  1.00  0.00     0.164 HD
BRANCH  12  15
ATOM     15  C   UNL     1     146.244 138.312  91.410  1.00  0.00     0.099 C 
ATOM     16  C   UNL     1     147.178 138.076  90.313  1.00  0.00     0.015 C 
ATOM     17  C   UNL     1     146.322 137.112  92.374  1.00  0.00     0.109 C 
ATOM     18  C   UNL     1     148.494 137.904  90.862  1.00  0.00     0.021 C 
ATOM     19  C   UNL     1     146.794 136.838  89.640  1.00  0.00     0.021 C 
ATOM     20  N   UNL     1     147.268 136.178  91.945  1.00  0.00    -0.301 NA
ATOM     21  C   UNL     1     148.509 136.766  91.839  1.00  0.00     0.085 C 
ATOM     22  C   UNL     1     146.886 135.660  90.683  1.00  0.00     0.085 C 
ENDBRANCH  12  15
ENDBRANCH   1  11
TORSDOF 2
ENDMDL
MODEL 9
REMARK VINA RESULT:    -7.349      4.241      8.146
REMARK INTER + INTRA:          -8.530
REMARK INTER:                  -8.250
REMARK INTRA:                  -0.280
REMARK UNBOUND:                -0.322
REMARK SMILES O=C(N[C@H]1CN2CCC1CC2)c1cc2cccc(Cl)c2s1
REMARK SMILES IDX 12 1 13 2 14 3 20 4 18 5 17 6 16 7 15 8 21 9 19 10 2 11 3 12
REMARK SMILES IDX 1 13 4 15 9 16 5 17 8 18 10 19 6 20 7 21 11 22
REMARK H PARENT 3 14
ROOT
ATOM      1  C   UNL     1     144.678 137.063  91.316  1.00  0.00     0.093 A 
ATOM      2  C   UNL     1     143.624 136.227  91.167  1.00  0.00     0.034 A 
ATOM      3  C   UNL     1     142.343 136.764  90.809  1.00  0.00    -0.005 A 
ATOM      4  C   UNL     1     142.352 138.193  90.645  1.00  0.00     0.054 A 
ATOM      5  C   UNL     1     141.193 138.847  90.300  1.00  0.00     0.058 A 
ATOM      6  C   UNL     1     140.014 138.120  90.111  1.00  0.00     0.022 A 
ATOM      7  C   UNL     1     140.009 136.724  90.272  1.00  0.00     0.002 A 
ATOM      8  C   UNL     1     141.184 136.058  90.622  1.00  0.00     0.010 A 
ATOM      9  S   UNL     1     144.074 138.662  90.991  1.00  0.00    -0.128 S 
ATOM     10  Cl  UNL     1     141.193 140.618  90.096  1.00  0.00    -0.083 Cl
ENDROOT
BRANCH   1  11
ATOM     11  C   UNL     1     146.104 136.649  91.696  1.00  0.00     0.261 C 
ATOM     12  N   UNL     1     147.248 137.275  91.062  1.00  0.00    -0.347 N 
ATOM     13  O   UNL     1     146.272 135.808  92.513  1.00  0.00    -0.268 OA
ATOM     14  H   UNL     1     147.117 137.973  90.380  1.00  0.00     0.164 HD
BRANCH  12  15
ATOM     15  C   UNL     1     148.614 136.856  91.447  1.00  0.00     0.099 C 
ATOM     16  C   UNL     1     149.543 137.971  91.287  1.00  0.00     0.015 C 
ATOM     17  C   UNL     1     149.086 135.702  90.540  1.00  0.00     0.109 C 
ATOM     18  C   UNL     1     150.864 137.518  91.624  1.00  0.00     0.021 C 
ATOM     19  C   UNL     1     149.539 138.374  89.883  1.00  0.00     0.021 C 
ATOM     20  N   UNL     1     150.260 136.039  89.862  1.00  0.00    -0.301 NA
ATOM     21  C   UNL     1     151.257 136.358  90.759  1.00  0.00     0.085 C 
ATOM     22  C   UNL     1     150.020 137.149  89.016  1.00  0.00     0.085 C 
ENDBRANCH  12  15
ENDBRANCH   1  11
TORSDOF 2
ENDMDL
MODEL 10
REMARK VINA RESULT:    -7.229      2.023      2.730
REMARK INTER + INTRA:          -8.396
REMARK INTER:                  -8.184
REMARK INTRA:                  -0.212
REMARK UNBOUND:                -0.322
REMARK SMILES O=C(N[C@H]1CN2CCC1CC2)c1cc2cccc(Cl)c2s1
REMARK SMILES IDX 12 1 13 2 14 3 20 4 18 5 17 6 16 7 15 8 21 9 19 10 2 11 3 12
REMARK SMILES IDX 1 13 4 15 9 16 5 17 8 18 10 19 6 20 7 21 11 22
REMARK H PARENT 3 14
ROOT
ATOM      1  C   UNL     1     142.470 137.267  90.729  1.00  0.00     0.093 A 
ATOM      2  C   UNL     1     143.454 138.130  91.071  1.00  0.00     0.034 A 
ATOM      3  C   UNL     1     144.721 137.618  91.509  1.00  0.00    -0.005 A 
ATOM      4  C   UNL     1     144.778 136.181  91.524  1.00  0.00     0.054 A 
ATOM      5  C   UNL     1     145.932 135.549  91.922  1.00  0.00     0.058 A 
ATOM      6  C   UNL     1     147.043 136.306  92.308  1.00  0.00     0.022 A 
ATOM      7  C   UNL     1     146.983 137.710  92.293  1.00  0.00     0.002 A 
ATOM      8  C   UNL     1     145.812 138.354  91.890  1.00  0.00     0.010 A 
ATOM      9  S   UNL     1     143.129 135.671  90.953  1.00  0.00    -0.128 S 
ATOM     10  Cl  UNL     1     146.014 133.768  91.945  1.00  0.00    -0.083 Cl
ENDROOT
BRANCH   1  11
ATOM     11  C   UNL     1     141.067 137.652  90.246  1.00  0.00     0.261 C 
ATOM     12  N   UNL     1     140.817 138.963  89.679  1.00  0.00    -0.347 N 
ATOM     13  O   UNL     1     140.180 136.873  90.340  1.00  0.00    -0.268 OA
ATOM     14  H   UNL     1     141.547 139.617  89.600  1.00  0.00     0.164 HD
BRANCH  12  15
ATOM     15  C   UNL     1     139.452 139.309  89.221  1.00  0.00     0.099 C 
ATOM     16  C   UNL     1     139.507 140.434  88.292  1.00  0.00     0.015 C 
ATOM     17  C   UNL     1     138.582 139.722  90.424  1.00  0.00     0.109 C 
ATOM     18  C   UNL     1     138.167 140.773  87.903  1.00  0.00     0.021 C 
ATOM     19  C   UNL     1     140.088 141.579  88.989  1.00  0.00     0.021 C 
ATOM     20  N   UNL     1     138.082 141.017  90.268  1.00  0.00    -0.301 NA
ATOM     21  C   UNL     1     137.341 141.108  89.110  1.00  0.00     0.085 C 
ATOM     22  C   UNL     1     139.157 141.938  90.209  1.00  0.00     0.085 C 
ENDBRANCH  12  15
ENDBRANCH   1  11
TORSDOF 2
ENDMDL
MODEL 11
REMARK VINA RESULT:    -7.182      3.478      7.870
REMARK INTER + INTRA:          -8.344
REMARK INTER:                  -8.027
REMARK INTRA:                  -0.317
REMARK UNBOUND:                -0.322
REMARK SMILES O=C(N[C@H]1CN2CCC1CC2)c1cc2cccc(Cl)c2s1
REMARK SMILES IDX 12 1 13 2 14 3 20 4 18 5 17 6 16 7 15 8 21 9 19 10 2 11 3 12
REMARK SMILES IDX 1 13 4 15 9 16 5 17 8 18 10 19 6 20 7 21 11 22
REMARK H PARENT 3 14
ROOT
ATOM      1  C   UNL     1     142.796 140.045  90.219  1.00  0.00     0.093 A 
ATOM      2  C   UNL     1     142.389 140.205  88.939  1.00  0.00     0.034 A 
ATOM      3  C   UNL     1     140.990 140.361  88.657  1.00  0.00    -0.005 A 
ATOM      4  C   UNL     1     140.167 140.327  89.836  1.00  0.00     0.054 A 
ATOM      5  C   UNL     1     138.805 140.465  89.720  1.00  0.00     0.058 A 
ATOM      6  C   UNL     1     138.228 140.639  88.458  1.00  0.00     0.022 A 
ATOM      7  C   UNL     1     139.035 140.671  87.308  1.00  0.00     0.002 A 
ATOM      8  C   UNL     1     140.419 140.531  87.424  1.00  0.00     0.010 A 
ATOM      9  S   UNL     1     141.354 140.087  91.192  1.00  0.00    -0.128 S 
ATOM     10  Cl  UNL     1     137.774 140.423  91.174  1.00  0.00    -0.083 Cl
ENDROOT
BRANCH   1  11
ATOM     11  C   UNL     1     144.246 139.864  90.682  1.00  0.00     0.261 C 
ATOM     12  N   UNL     1     144.850 138.546  90.719  1.00  0.00    -0.347 N 
ATOM     13  O   UNL     1     144.876 140.810  91.016  1.00  0.00    -0.268 OA
ATOM     14  H   UNL     1     144.332 137.755  90.447  1.00  0.00     0.164 HD
BRANCH  12  15
ATOM     15  C   UNL     1     146.252 138.400  91.172  1.00  0.00     0.099 C 
ATOM     16  C   UNL     1     147.064 137.824  90.104  1.00  0.00     0.015 C 
ATOM     17  C   UNL     1     146.316 137.456  92.388  1.00  0.00     0.109 C 
ATOM     18  C   UNL     1     148.405 137.654  90.590  1.00  0.00     0.021 C 
ATOM     19  C   UNL     1     146.523 136.508  89.774  1.00  0.00     0.021 C 
ATOM     20  N   UNL     1     147.142 136.358  92.134  1.00  0.00    -0.301 NA
ATOM     21  C   UNL     1     148.413 136.779  91.808  1.00  0.00     0.085 C 
ATOM     22  C   UNL     1     146.611 135.601  91.060  1.00  0.00     0.085 C 
ENDBRANCH  12  15
ENDBRANCH   1  11
TORSDOF 2
ENDMDL
MODEL 12
REMARK VINA RESULT:    -6.991      4.890      9.255
REMARK INTER + INTRA:          -8.130
REMARK INTER:                  -7.840
REMARK INTRA:                  -0.290
REMARK UNBOUND:                -0.322
REMARK SMILES O=C(N[C@H]1CN2CCC1CC2)c1cc2cccc(Cl)c2s1
REMARK SMILES IDX 12 1 13 2 14 3 20 4 18 5 17 6 16 7 15 8 21 9 19 10 2 11 3 12
REMARK SMILES IDX 1 13 4 15 9 16 5 17 8 18 10 19 6 20 7 21 11 22
REMARK H PARENT 3 14
ROOT
ATOM      1  C   UNL     1     146.404 136.859  91.719  1.00  0.00     0.093 A 
ATOM      2  C   UNL     1     146.161 138.180  91.551  1.00  0.00     0.034 A 
ATOM      3  C   UNL     1     144.835 138.617  91.221  1.00  0.00    -0.005 A 
ATOM      4  C   UNL     1     143.892 137.536  91.111  1.00  0.00     0.054 A 
ATOM      5  C   UNL     1     142.581 137.805  90.801  1.00  0.00     0.058 A 
ATOM      6  C   UNL     1     142.171 139.126  90.595  1.00  0.00     0.022 A 
ATOM      7  C   UNL     1     143.095 140.179  90.703  1.00  0.00     0.002 A 
ATOM      8  C   UNL     1     144.427 139.909  91.017  1.00  0.00     0.010 A 
ATOM      9  S   UNL     1     144.884 136.053  91.458  1.00  0.00    -0.128 S 
ATOM     10  Cl  UNL     1     141.404 136.473  90.661  1.00  0.00    -0.083 Cl
ENDROOT
BRANCH   1  11
ATOM     11  C   UNL     1     147.759 136.234  92.069  1.00  0.00     0.261 C 
ATOM     12  N   UNL     1     148.994 136.929  91.758  1.00  0.00    -0.347 N 
ATOM     13  O   UNL     1     147.797 135.174  92.596  1.00  0.00    -0.268 OA
ATOM     14  H   UNL     1     148.971 137.809  91.318  1.00  0.00     0.164 HD
BRANCH  12  15
ATOM     15  C   UNL     1     150.290 136.302  92.107  1.00  0.00     0.099 C 
ATOM     16  C   UNL     1     151.284 137.334  92.388  1.00  0.00     0.015 C 
ATOM     17  C   UNL     1     150.798 135.453  90.925  1.00  0.00     0.109 C 
ATOM     18  C   UNL     1     152.537 136.694  92.677  1.00  0.00     0.021 C 
ATOM     19  C   UNL     1     151.449 138.152  91.189  1.00  0.00     0.021 C 
ATOM     20  N   UNL     1     152.053 135.888  90.492  1.00  0.00    -0.301 NA
ATOM     21  C   UNL     1     152.963 135.832  91.525  1.00  0.00     0.085 C 
ATOM     22  C   UNL     1     151.960 137.222  90.023  1.00  0.00     0.085 C 
ENDBRANCH  12  15
ENDBRANCH   1  11
TORSDOF 2
ENDMDL
