MODEL 1
REMARK VINA RESULT:    -8.838      0.000      0.000
REMARK INTER + INTRA:         -14.408
REMARK INTER:                 -13.230
REMARK INTRA:                  -1.179
REMARK UNBOUND:                -1.179
REMARK SMILES C[C@H]1N[C@@H](N[C@@H](O)N2CCC[C@H]2[C@@H](N)O)S[C@@H]1[C@H]1CCN[C@H](C(C)(C)C(F)(F)F)C1
REMARK SMILES IDX 5 1 4 3 2 4 17 5 3 6 16 7 1 8 18 10 19 11 30 12 20 13 22 14
REMARK SMILES IDX 21 15 23 17 24 18 25 19 26 20 27 21 28 22 29 23 6 24 7 25
REMARK SMILES IDX 8 27 12 28 9 29 11 30 10 31 13 32 15 33 14 35
REMARK H PARENT 5 2 3 9 21 16 7 26 15 34 14 36 14 37
ROOT
ATOM      1  N   UNL     1      -0.048 -10.178  13.761  1.00  0.00    -0.255 NA
ATOM      2  H   UNL     1       0.099 -11.035  13.207  1.00  0.00     0.129 HD
ENDROOT
BRANCH   1   3
ATOM      3  C   UNL     1      -1.012 -10.502  14.696  1.00  0.00     0.185 C 
ATOM      4  C   UNL     1      -2.898 -11.392  15.434  1.00  0.00     0.066 C 
ATOM      5  C   UNL     1      -2.435 -10.891  16.647  1.00  0.00     0.069 C 
ATOM      6  N   UNL     1      -2.081 -11.170  14.345  1.00  0.00    -0.290 NA
ATOM      7  S   UNL     1      -0.914 -10.077  16.368  1.00  0.00    -0.122 SA
ATOM      8  C   UNL     1      -4.168 -12.152  15.228  1.00  0.00     0.025 C 
ATOM      9  H   UNL     1      -1.797 -12.076  13.945  1.00  0.00     0.125 HD
BRANCH   5  10
ATOM     10  C   UNL     1      -2.950 -10.888  18.034  1.00  0.00     0.006 C 
ATOM     11  C   UNL     1      -4.089 -11.606  18.385  1.00  0.00     0.020 C 
ATOM     12  C   UNL     1      -2.274 -10.178  19.021  1.00  0.00     0.024 C 
ATOM     13  C   UNL     1      -4.529 -11.547  19.689  1.00  0.00     0.081 C 
ATOM     14  C   UNL     1      -2.790 -10.195  20.326  1.00  0.00     0.068 C 
ATOM     15  N   UNL     1      -3.911 -10.852  20.654  1.00  0.00    -0.313 NA
ATOM     16  H   UNL     1      -4.582 -10.157  21.012  1.00  0.00     0.122 HD
BRANCH  14  17
ATOM     17  C   UNL     1      -2.054  -9.484  21.487  1.00  0.00     0.076 C 
ATOM     18  C   UNL     1      -1.459  -8.142  21.030  1.00  0.00     0.022 C 
ATOM     19  C   UNL     1      -3.019  -9.249  22.662  1.00  0.00     0.022 C 
BRANCH  17  20
ATOM     20  C   UNL     1      -0.819 -10.409  22.019  1.00  0.00     0.395 C 
ATOM     21  F   UNL     1      -0.955 -11.663  21.589  1.00  0.00    -0.170 F 
ATOM     22  F   UNL     1       0.367  -9.981  21.601  1.00  0.00    -0.170 F 
ATOM     23  F   UNL     1      -0.760 -10.444  23.345  1.00  0.00    -0.170 F 
ENDBRANCH  17  20
ENDBRANCH  14  17
ENDBRANCH   5  10
ENDBRANCH   1   3
BRANCH   1  24
ATOM     24  C   UNL     1      -0.168  -9.140  12.826  1.00  0.00     0.261 C 
BRANCH  24  25
ATOM     25  O   UNL     1      -1.225  -8.902  12.261  1.00  0.00    -0.365 OA
ATOM     26  H   UNL     1      -1.960  -8.897  12.925  1.00  0.00     0.214 HD
ENDBRANCH  24  25
BRANCH  24  27
ATOM     27  N   UNL     1       0.962  -8.388  12.563  1.00  0.00    -0.259 NA
ATOM     28  C   UNL     1       1.378  -7.334  13.503  1.00  0.00     0.104 C 
ATOM     29  C   UNL     1       1.870  -8.506  11.412  1.00  0.00     0.089 C 
ATOM     30  C   UNL     1       2.702  -6.822  12.914  1.00  0.00     0.025 C 
ATOM     31  C   UNL     1       2.670  -7.222  11.458  1.00  0.00     0.017 C 
BRANCH  28  32
ATOM     32  C   UNL     1       0.346  -6.215  13.663  1.00  0.00     0.197 C 
BRANCH  32  33
ATOM     33  O   UNL     1      -0.365  -5.884  12.710  1.00  0.00    -0.377 OA
ATOM     34  H   UNL     1      -0.323  -4.902  12.594  1.00  0.00     0.212 HD
ENDBRANCH  32  33
BRANCH  32  35
ATOM     35  N   UNL     1       0.319  -5.596  14.832  1.00  0.00    -0.305 NA
ATOM     36  H   UNL     1      -0.133  -6.201  15.531  1.00  0.00     0.121 HD
ATOM     37  H   UNL     1       1.282  -5.384  15.131  1.00  0.00     0.121 HD
ENDBRANCH  32  35
ENDBRANCH  28  32
ENDBRANCH  24  27
ENDBRANCH   1  24
TORSDOF 10
ENDMDL
MODEL 2
REMARK VINA RESULT:    -8.544      2.269      3.304
REMARK INTER + INTRA:         -13.969
REMARK INTER:                 -12.888
REMARK INTRA:                  -1.081
REMARK UNBOUND:                -1.179
REMARK SMILES C[C@H]1N[C@@H](N[C@@H](O)N2CCC[C@H]2[C@@H](N)O)S[C@@H]1[C@H]1CCN[C@H](C(C)(C)C(F)(F)F)C1
REMARK SMILES IDX 5 1 4 3 2 4 17 5 3 6 16 7 1 8 18 10 19 11 30 12 20 13 22 14
REMARK SMILES IDX 21 15 23 17 24 18 25 19 26 20 27 21 28 22 29 23 6 24 7 25
REMARK SMILES IDX 8 27 12 28 9 29 11 30 10 31 13 32 15 33 14 35
REMARK H PARENT 5 2 3 9 21 16 7 26 15 34 14 36 14 37
ROOT
ATOM      1  N   UNL     1       0.657  -8.106  12.215  1.00  0.00    -0.255 NA
ATOM      2  H   UNL     1       1.595  -7.749  12.447  1.00  0.00     0.129 HD
ENDROOT
BRANCH   1   3
ATOM      3  C   UNL     1       0.096  -8.489  13.418  1.00  0.00     0.185 C 
ATOM      4  C   UNL     1      -0.883  -9.864  14.847  1.00  0.00     0.066 C 
ATOM      5  C   UNL     1      -0.767  -8.763  15.690  1.00  0.00     0.069 C 
ATOM      6  N   UNL     1      -0.386  -9.696  13.571  1.00  0.00    -0.290 NA
ATOM      7  S   UNL     1      -0.024  -7.457  14.798  1.00  0.00    -0.122 SA
ATOM      8  C   UNL     1      -1.469 -11.190  15.213  1.00  0.00     0.025 C 
ATOM      9  H   UNL     1       0.364 -10.382  13.407  1.00  0.00     0.125 HD
BRANCH   5  10
ATOM     10  C   UNL     1      -1.144  -8.485  17.093  1.00  0.00     0.006 C 
ATOM     11  C   UNL     1      -0.916  -7.241  17.672  1.00  0.00     0.020 C 
ATOM     12  C   UNL     1      -1.766  -9.473  17.851  1.00  0.00     0.024 C 
ATOM     13  C   UNL     1      -1.272  -7.051  18.989  1.00  0.00     0.081 C 
ATOM     14  C   UNL     1      -2.109  -9.177  19.178  1.00  0.00     0.068 C 
ATOM     15  N   UNL     1      -1.851  -7.992  19.748  1.00  0.00    -0.313 NA
ATOM     16  H   UNL     1      -1.229  -8.165  20.551  1.00  0.00     0.122 HD
BRANCH  14  17
ATOM     17  C   UNL     1      -2.863 -10.204  20.058  1.00  0.00     0.076 C 
ATOM     18  C   UNL     1      -3.875  -9.508  20.982  1.00  0.00     0.022 C 
ATOM     19  C   UNL     1      -3.592 -11.229  19.171  1.00  0.00     0.022 C 
BRANCH  17  20
ATOM     20  C   UNL     1      -1.809 -11.010  21.008  1.00  0.00     0.395 C 
ATOM     21  F   UNL     1      -2.294 -11.135  22.243  1.00  0.00    -0.170 F 
ATOM     22  F   UNL     1      -1.545 -12.235  20.568  1.00  0.00    -0.170 F 
ATOM     23  F   UNL     1      -0.642 -10.382  21.098  1.00  0.00    -0.170 F 
ENDBRANCH  17  20
ENDBRANCH  14  17
ENDBRANCH   5  10
ENDBRANCH   1   3
BRANCH   1  24
ATOM     24  C   UNL     1       0.839  -8.960  11.117  1.00  0.00     0.261 C 
BRANCH  24  25
ATOM     25  O   UNL     1      -0.106  -9.376  10.464  1.00  0.00    -0.365 OA
ATOM     26  H   UNL     1      -0.691  -8.619  10.209  1.00  0.00     0.214 HD
ENDBRANCH  24  25
BRANCH  24  27
ATOM     27  N   UNL     1       2.135  -9.316  10.797  1.00  0.00    -0.259 NA
ATOM     28  C   UNL     1       3.209  -8.311  10.855  1.00  0.00     0.104 C 
ATOM     29  C   UNL     1       2.627 -10.642  10.391  1.00  0.00     0.089 C 
ATOM     30  C   UNL     1       4.480  -9.115  10.538  1.00  0.00     0.025 C 
ATOM     31  C   UNL     1       3.996 -10.352   9.817  1.00  0.00     0.017 C 
BRANCH  28  32
ATOM     32  C   UNL     1       3.008  -7.144   9.886  1.00  0.00     0.197 C 
BRANCH  32  33
ATOM     33  O   UNL     1       3.276  -7.276   8.688  1.00  0.00    -0.377 OA
ATOM     34  H   UNL     1       2.684  -7.963   8.292  1.00  0.00     0.212 HD
ENDBRANCH  32  33
BRANCH  32  35
ATOM     35  N   UNL     1       2.611  -5.997  10.412  1.00  0.00    -0.305 NA
ATOM     36  H   UNL     1       2.170  -5.419   9.683  1.00  0.00     0.121 HD
ATOM     37  H   UNL     1       1.930  -6.181  11.163  1.00  0.00     0.121 HD
ENDBRANCH  32  35
ENDBRANCH  28  32
ENDBRANCH  24  27
ENDBRANCH   1  24
TORSDOF 10
ENDMDL
MODEL 3
REMARK VINA RESULT:    -8.467      1.714      2.862
REMARK INTER + INTRA:         -13.852
REMARK INTER:                 -13.043
REMARK INTRA:                  -0.809
REMARK UNBOUND:                -1.179
REMARK SMILES C[C@H]1N[C@@H](N[C@@H](O)N2CCC[C@H]2[C@@H](N)O)S[C@@H]1[C@H]1CCN[C@H](C(C)(C)C(F)(F)F)C1
REMARK SMILES IDX 5 1 4 3 2 4 17 5 3 6 16 7 1 8 18 10 19 11 30 12 20 13 22 14
REMARK SMILES IDX 21 15 23 17 24 18 25 19 26 20 27 21 28 22 29 23 6 24 7 25
REMARK SMILES IDX 8 27 12 28 9 29 11 30 10 31 13 32 15 33 14 35
REMARK H PARENT 5 2 3 9 21 16 7 26 15 34 14 36 14 37
ROOT
ATOM      1  N   UNL     1       0.252  -8.655  13.246  1.00  0.00    -0.255 NA
ATOM      2  H   UNL     1      -0.380  -9.028  12.524  1.00  0.00     0.129 HD
ENDROOT
BRANCH   1   3
ATOM      3  C   UNL     1      -0.391  -8.873  14.450  1.00  0.00     0.185 C 
ATOM      4  C   UNL     1      -0.975  -8.442  16.540  1.00  0.00     0.066 C 
ATOM      5  C   UNL     1      -1.718  -9.606  16.369  1.00  0.00     0.069 C 
ATOM      6  N   UNL     1      -0.237  -8.038  15.446  1.00  0.00    -0.290 NA
ATOM      7  S   UNL     1      -1.428 -10.220  14.759  1.00  0.00    -0.122 SA
ATOM      8  C   UNL     1      -0.932  -7.603  17.776  1.00  0.00     0.025 C 
ATOM      9  H   UNL     1      -0.552  -7.102  15.153  1.00  0.00     0.125 HD
BRANCH   5  10
ATOM     10  C   UNL     1      -2.627 -10.394  17.232  1.00  0.00     0.006 C 
ATOM     11  C   UNL     1      -3.426 -11.405  16.710  1.00  0.00     0.020 C 
ATOM     12  C   UNL     1      -2.671 -10.144  18.600  1.00  0.00     0.024 C 
ATOM     13  C   UNL     1      -4.265 -12.089  17.561  1.00  0.00     0.081 C 
ATOM     14  C   UNL     1      -3.543 -10.907  19.389  1.00  0.00     0.068 C 
ATOM     15  N   UNL     1      -4.344 -11.853  18.878  1.00  0.00    -0.313 NA
ATOM     16  H   UNL     1      -5.315 -11.578  19.084  1.00  0.00     0.122 HD
BRANCH  14  17
ATOM     17  C   UNL     1      -3.595 -10.731  20.926  1.00  0.00     0.076 C 
ATOM     18  C   UNL     1      -4.056  -9.315  21.308  1.00  0.00     0.022 C 
ATOM     19  C   UNL     1      -4.545 -11.770  21.548  1.00  0.00     0.022 C 
BRANCH  17  20
ATOM     20  C   UNL     1      -2.110 -10.949  21.567  1.00  0.00     0.395 C 
ATOM     21  F   UNL     1      -1.485 -11.959  20.963  1.00  0.00    -0.170 F 
ATOM     22  F   UNL     1      -1.331  -9.881  21.445  1.00  0.00    -0.170 F 
ATOM     23  F   UNL     1      -2.166 -11.230  22.864  1.00  0.00    -0.170 F 
ENDBRANCH  17  20
ENDBRANCH  14  17
ENDBRANCH   5  10
ENDBRANCH   1   3
BRANCH   1  24
ATOM     24  C   UNL     1       0.657  -7.395  12.781  1.00  0.00     0.261 C 
BRANCH  24  25
ATOM     25  O   UNL     1       0.013  -6.384  13.019  1.00  0.00    -0.365 OA
ATOM     26  H   UNL     1       0.468  -5.862  13.726  1.00  0.00     0.214 HD
ENDBRANCH  24  25
BRANCH  24  27
ATOM     27  N   UNL     1       1.820  -7.337  12.038  1.00  0.00    -0.259 NA
ATOM     28  C   UNL     1       1.764  -7.472  10.573  1.00  0.00     0.104 C 
ATOM     29  C   UNL     1       3.191  -7.136  12.532  1.00  0.00     0.089 C 
ATOM     30  C   UNL     1       3.219  -7.251  10.130  1.00  0.00     0.025 C 
ATOM     31  C   UNL     1       4.055  -7.536  11.356  1.00  0.00     0.017 C 
BRANCH  28  32
ATOM     32  C   UNL     1       1.217  -8.822  10.104  1.00  0.00     0.197 C 
BRANCH  32  33
ATOM     33  O   UNL     1       0.041  -9.127  10.325  1.00  0.00    -0.377 OA
ATOM     34  H   UNL     1      -0.336  -8.514  11.004  1.00  0.00     0.212 HD
ENDBRANCH  32  33
BRANCH  32  35
ATOM     35  N   UNL     1       2.079  -9.646   9.531  1.00  0.00    -0.305 NA
ATOM     36  H   UNL     1       1.616 -10.544   9.334  1.00  0.00     0.121 HD
ATOM     37  H   UNL     1       2.416  -9.233   8.650  1.00  0.00     0.121 HD
ENDBRANCH  32  35
ENDBRANCH  28  32
ENDBRANCH  24  27
ENDBRANCH   1  24
TORSDOF 10
ENDMDL
MODEL 4
REMARK VINA RESULT:    -8.405      1.258      2.305
REMARK INTER + INTRA:         -13.760
REMARK INTER:                 -12.373
REMARK INTRA:                  -1.387
REMARK UNBOUND:                -1.179
REMARK SMILES C[C@H]1N[C@@H](N[C@@H](O)N2CCC[C@H]2[C@@H](N)O)S[C@@H]1[C@H]1CCN[C@H](C(C)(C)C(F)(F)F)C1
REMARK SMILES IDX 5 1 4 3 2 4 17 5 3 6 16 7 1 8 18 10 19 11 30 12 20 13 22 14
REMARK SMILES IDX 21 15 23 17 24 18 25 19 26 20 27 21 28 22 29 23 6 24 7 25
REMARK SMILES IDX 8 27 12 28 9 29 11 30 10 31 13 32 15 33 14 35
REMARK H PARENT 5 2 3 9 21 16 7 26 15 34 14 36 14 37
ROOT
ATOM      1  N   UNL     1       0.588  -6.816  14.644  1.00  0.00    -0.255 NA
ATOM      2  H   UNL     1       1.574  -7.002  14.880  1.00  0.00     0.129 HD
ENDROOT
BRANCH   1   3
ATOM      3  C   UNL     1      -0.137  -7.817  15.261  1.00  0.00     0.185 C 
ATOM      4  C   UNL     1      -1.062  -9.817  15.462  1.00  0.00     0.066 C 
ATOM      5  C   UNL     1      -1.435  -9.307  16.702  1.00  0.00     0.069 C 
ATOM      6  N   UNL     1      -0.324  -8.966  14.664  1.00  0.00    -0.290 NA
ATOM      7  S   UNL     1      -0.847  -7.667  16.829  1.00  0.00    -0.122 SA
ATOM      8  C   UNL     1      -1.370 -11.186  14.948  1.00  0.00     0.025 C 
ATOM      9  H   UNL     1       0.590  -9.397  14.465  1.00  0.00     0.125 HD
BRANCH   5  10
ATOM     10  C   UNL     1      -2.202  -9.834  17.852  1.00  0.00     0.006 C 
ATOM     11  C   UNL     1      -3.308 -10.657  17.670  1.00  0.00     0.020 C 
ATOM     12  C   UNL     1      -1.801  -9.528  19.149  1.00  0.00     0.024 C 
ATOM     13  C   UNL     1      -3.992 -11.099  18.781  1.00  0.00     0.081 C 
ATOM     14  C   UNL     1      -2.551 -10.042  20.217  1.00  0.00     0.068 C 
ATOM     15  N   UNL     1      -3.641 -10.800  20.040  1.00  0.00    -0.313 NA
ATOM     16  H   UNL     1      -4.435 -10.305  20.471  1.00  0.00     0.122 HD
BRANCH  14  17
ATOM     17  C   UNL     1      -2.125  -9.798  21.685  1.00  0.00     0.076 C 
ATOM     18  C   UNL     1      -1.772  -8.321  21.924  1.00  0.00     0.022 C 
ATOM     19  C   UNL     1      -3.252 -10.223  22.643  1.00  0.00     0.022 C 
BRANCH  17  20
ATOM     20  C   UNL     1      -0.797 -10.680  22.038  1.00  0.00     0.395 C 
ATOM     21  F   UNL     1      -0.821 -11.842  21.387  1.00  0.00    -0.170 F 
ATOM     22  F   UNL     1       0.334 -10.070  21.703  1.00  0.00    -0.170 F 
ATOM     23  F   UNL     1      -0.710 -10.949  23.336  1.00  0.00    -0.170 F 
ENDBRANCH  17  20
ENDBRANCH  14  17
ENDBRANCH   5  10
ENDBRANCH   1   3
BRANCH   1  24
ATOM     24  C   UNL     1       0.572  -6.560  13.265  1.00  0.00     0.261 C 
BRANCH  24  25
ATOM     25  O   UNL     1      -0.359  -5.978  12.730  1.00  0.00    -0.365 OA
ATOM     26  H   UNL     1      -0.324  -6.127  11.752  1.00  0.00     0.214 HD
ENDBRANCH  24  25
BRANCH  24  27
ATOM     27  N   UNL     1       1.657  -6.993  12.526  1.00  0.00    -0.259 NA
ATOM     28  C   UNL     1       1.444  -7.704  11.254  1.00  0.00     0.104 C 
ATOM     29  C   UNL     1       3.084  -6.825  12.844  1.00  0.00     0.089 C 
ATOM     30  C   UNL     1       2.865  -7.913  10.710  1.00  0.00     0.025 C 
ATOM     31  C   UNL     1       3.771  -7.800  11.914  1.00  0.00     0.017 C 
BRANCH  28  32
ATOM     32  C   UNL     1       0.685  -9.024  11.411  1.00  0.00     0.197 C 
BRANCH  32  33
ATOM     33  O   UNL     1      -0.481  -9.026  11.817  1.00  0.00    -0.377 OA
ATOM     34  H   UNL     1      -0.546  -9.590  12.629  1.00  0.00     0.212 HD
ENDBRANCH  32  33
BRANCH  32  35
ATOM     35  N   UNL     1       1.364 -10.132  11.163  1.00  0.00    -0.305 NA
ATOM     36  H   UNL     1       2.026 -10.308  11.931  1.00  0.00     0.121 HD
ATOM     37  H   UNL     1       0.711 -10.925  11.084  1.00  0.00     0.121 HD
ENDBRANCH  32  35
ENDBRANCH  28  32
ENDBRANCH  24  27
ENDBRANCH   1  24
TORSDOF 10
ENDMDL
MODEL 5
REMARK VINA RESULT:    -8.310      1.978      2.727
REMARK INTER + INTRA:         -13.617
REMARK INTER:                 -12.661
REMARK INTRA:                  -0.956
REMARK UNBOUND:                -1.179
REMARK SMILES C[C@H]1N[C@@H](N[C@@H](O)N2CCC[C@H]2[C@@H](N)O)S[C@@H]1[C@H]1CCN[C@H](C(C)(C)C(F)(F)F)C1
REMARK SMILES IDX 5 1 4 3 2 4 17 5 3 6 16 7 1 8 18 10 19 11 30 12 20 13 22 14
REMARK SMILES IDX 21 15 23 17 24 18 25 19 26 20 27 21 28 22 29 23 6 24 7 25
REMARK SMILES IDX 8 27 12 28 9 29 11 30 10 31 13 32 15 33 14 35
REMARK H PARENT 5 2 3 9 21 16 7 26 15 34 14 36 14 37
ROOT
ATOM      1  N   UNL     1      -0.294  -9.288  12.405  1.00  0.00    -0.255 NA
ATOM      2  H   UNL     1      -1.137  -9.010  11.881  1.00  0.00     0.129 HD
ENDROOT
BRANCH   1   3
ATOM      3  C   UNL     1      -0.694  -9.389  13.724  1.00  0.00     0.185 C 
ATOM      4  C   UNL     1      -0.729  -8.868  15.874  1.00  0.00     0.066 C 
ATOM      5  C   UNL     1      -1.692  -9.872  15.904  1.00  0.00     0.069 C 
ATOM      6  N   UNL     1      -0.181  -8.602  14.635  1.00  0.00    -0.290 NA
ATOM      7  S   UNL     1      -1.870 -10.521  14.291  1.00  0.00    -0.122 SA
ATOM      8  C   UNL     1      -0.271  -8.058  17.043  1.00  0.00     0.025 C 
ATOM      9  H   UNL     1      -0.374  -7.623  14.383  1.00  0.00     0.125 HD
BRANCH   5  10
ATOM     10  C   UNL     1      -2.524 -10.481  16.966  1.00  0.00     0.006 C 
ATOM     11  C   UNL     1      -3.424 -11.503  16.684  1.00  0.00     0.020 C 
ATOM     12  C   UNL     1      -2.392 -10.048  18.281  1.00  0.00     0.024 C 
ATOM     13  C   UNL     1      -4.184 -12.015  17.712  1.00  0.00     0.081 C 
ATOM     14  C   UNL     1      -3.196 -10.645  19.263  1.00  0.00     0.068 C 
ATOM     15  N   UNL     1      -4.093 -11.600  18.984  1.00  0.00    -0.313 NA
ATOM     16  H   UNL     1      -5.020 -11.243  19.258  1.00  0.00     0.122 HD
BRANCH  14  17
ATOM     17  C   UNL     1      -3.055 -10.262  20.756  1.00  0.00     0.076 C 
ATOM     18  C   UNL     1      -2.980  -8.737  20.934  1.00  0.00     0.022 C 
ATOM     19  C   UNL     1      -4.241 -10.820  21.562  1.00  0.00     0.022 C 
BRANCH  17  20
ATOM     20  C   UNL     1      -1.680 -10.892  21.370  1.00  0.00     0.395 C 
ATOM     21  F   UNL     1      -1.432 -12.086  20.833  1.00  0.00    -0.170 F 
ATOM     22  F   UNL     1      -0.614 -10.134  21.140  1.00  0.00    -0.170 F 
ATOM     23  F   UNL     1      -1.751 -11.052  22.686  1.00  0.00    -0.170 F 
ENDBRANCH  17  20
ENDBRANCH  14  17
ENDBRANCH   5  10
ENDBRANCH   1   3
BRANCH   1  24
ATOM     24  C   UNL     1       0.730  -8.445  11.950  1.00  0.00     0.261 C 
BRANCH  24  25
ATOM     25  O   UNL     1       0.713  -7.241  12.159  1.00  0.00    -0.365 OA
ATOM     26  H   UNL     1      -0.198  -6.890  11.992  1.00  0.00     0.214 HD
ENDBRANCH  24  25
BRANCH  24  27
ATOM     27  N   UNL     1       1.769  -9.029  11.250  1.00  0.00    -0.259 NA
ATOM     28  C   UNL     1       2.932  -8.220  10.849  1.00  0.00     0.104 C 
ATOM     29  C   UNL     1       1.890 -10.435  10.833  1.00  0.00     0.089 C 
ATOM     30  C   UNL     1       3.882  -9.241  10.204  1.00  0.00     0.025 C 
ATOM     31  C   UNL     1       3.004 -10.405   9.808  1.00  0.00     0.017 C 
BRANCH  28  32
ATOM     32  C   UNL     1       2.581  -7.076   9.896  1.00  0.00     0.197 C 
BRANCH  32  33
ATOM     33  O   UNL     1       2.149  -7.318   8.765  1.00  0.00    -0.377 OA
ATOM     34  H   UNL     1       1.467  -6.643   8.521  1.00  0.00     0.212 HD
ENDBRANCH  32  33
BRANCH  32  35
ATOM     35  N   UNL     1       2.833  -5.849  10.323  1.00  0.00    -0.305 NA
ATOM     36  H   UNL     1       3.418  -5.894  11.169  1.00  0.00     0.121 HD
ATOM     37  H   UNL     1       3.331  -5.325   9.589  1.00  0.00     0.121 HD
ENDBRANCH  32  35
ENDBRANCH  28  32
ENDBRANCH  24  27
ENDBRANCH   1  24
TORSDOF 10
ENDMDL
MODEL 6
REMARK VINA RESULT:    -7.994      2.458      3.924
REMARK INTER + INTRA:         -13.144
REMARK INTER:                 -12.628
REMARK INTRA:                  -0.516
REMARK UNBOUND:                -1.179
REMARK SMILES C[C@H]1N[C@@H](N[C@@H](O)N2CCC[C@H]2[C@@H](N)O)S[C@@H]1[C@H]1CCN[C@H](C(C)(C)C(F)(F)F)C1
REMARK SMILES IDX 5 1 4 3 2 4 17 5 3 6 16 7 1 8 18 10 19 11 30 12 20 13 22 14
REMARK SMILES IDX 21 15 23 17 24 18 25 19 26 20 27 21 28 22 29 23 6 24 7 25
REMARK SMILES IDX 8 27 12 28 9 29 11 30 10 31 13 32 15 33 14 35
REMARK H PARENT 5 2 3 9 21 16 7 26 15 34 14 36 14 37
ROOT
ATOM      1  N   UNL     1       0.779  -7.163  12.678  1.00  0.00    -0.255 NA
ATOM      2  H   UNL     1       0.346  -6.234  12.571  1.00  0.00     0.129 HD
ENDROOT
BRANCH   1   3
ATOM      3  C   UNL     1       0.257  -7.683  13.847  1.00  0.00     0.185 C 
ATOM      4  C   UNL     1      -0.327  -7.677  15.981  1.00  0.00     0.066 C 
ATOM      5  C   UNL     1      -0.774  -8.956  15.663  1.00  0.00     0.069 C 
ATOM      6  N   UNL     1       0.246  -6.969  14.944  1.00  0.00    -0.290 NA
ATOM      7  S   UNL     1      -0.412  -9.270  13.982  1.00  0.00    -0.122 SA
ATOM      8  C   UNL     1      -0.436  -7.018  17.317  1.00  0.00     0.025 C 
ATOM      9  H   UNL     1      -0.295  -6.109  14.782  1.00  0.00     0.125 HD
BRANCH   5  10
ATOM     10  C   UNL     1      -1.431 -10.044  16.420  1.00  0.00     0.006 C 
ATOM     11  C   UNL     1      -1.599 -11.311  15.870  1.00  0.00     0.020 C 
ATOM     12  C   UNL     1      -1.870  -9.815  17.720  1.00  0.00     0.024 C 
ATOM     13  C   UNL     1      -2.235 -12.276  16.618  1.00  0.00     0.081 C 
ATOM     14  C   UNL     1      -2.489 -10.868  18.410  1.00  0.00     0.068 C 
ATOM     15  N   UNL     1      -2.688 -12.075  17.864  1.00  0.00    -0.313 NA
ATOM     16  H   UNL     1      -3.704 -12.245  17.853  1.00  0.00     0.122 HD
BRANCH  14  17
ATOM     17  C   UNL     1      -2.940 -10.705  19.882  1.00  0.00     0.076 C 
ATOM     18  C   UNL     1      -2.009 -11.468  20.837  1.00  0.00     0.022 C 
ATOM     19  C   UNL     1      -2.969  -9.215  20.266  1.00  0.00     0.022 C 
BRANCH  17  20
ATOM     20  C   UNL     1      -4.443 -11.311  20.078  1.00  0.00     0.395 C 
ATOM     21  F   UNL     1      -4.407 -12.415  20.823  1.00  0.00    -0.170 F 
ATOM     22  F   UNL     1      -5.270 -10.464  20.679  1.00  0.00    -0.170 F 
ATOM     23  F   UNL     1      -5.006 -11.629  18.918  1.00  0.00    -0.170 F 
ENDBRANCH  17  20
ENDBRANCH  14  17
ENDBRANCH   5  10
ENDBRANCH   1   3
BRANCH   1  24
ATOM     24  C   UNL     1       2.147  -6.973  12.435  1.00  0.00     0.261 C 
BRANCH  24  25
ATOM     25  O   UNL     1       2.924  -6.681  13.332  1.00  0.00    -0.365 OA
ATOM     26  H   UNL     1       2.825  -5.722  13.556  1.00  0.00     0.214 HD
ENDBRANCH  24  25
BRANCH  24  27
ATOM     27  N   UNL     1       2.589  -7.129  11.135  1.00  0.00    -0.259 NA
ATOM     28  C   UNL     1       1.677  -7.657  10.107  1.00  0.00     0.104 C 
ATOM     29  C   UNL     1       3.922  -6.814  10.597  1.00  0.00     0.089 C 
ATOM     30  C   UNL     1       2.501  -7.576   8.812  1.00  0.00     0.025 C 
ATOM     31  C   UNL     1       3.943  -7.525   9.262  1.00  0.00     0.017 C 
BRANCH  28  32
ATOM     32  C   UNL     1       1.189  -9.078  10.394  1.00  0.00     0.197 C 
BRANCH  32  33
ATOM     33  O   UNL     1       1.994 -10.011  10.460  1.00  0.00    -0.377 OA
ATOM     34  H   UNL     1       2.768  -9.821   9.872  1.00  0.00     0.212 HD
ENDBRANCH  32  33
BRANCH  32  35
ATOM     35  N   UNL     1      -0.120  -9.248  10.489  1.00  0.00    -0.305 NA
ATOM     36  H   UNL     1      -0.317 -10.150  10.944  1.00  0.00     0.121 HD
ATOM     37  H   UNL     1      -0.526  -8.485  11.049  1.00  0.00     0.121 HD
ENDBRANCH  32  35
ENDBRANCH  28  32
ENDBRANCH  24  27
ENDBRANCH   1  24
TORSDOF 10
ENDMDL
MODEL 7
REMARK VINA RESULT:    -7.981      1.802      2.695
REMARK INTER + INTRA:         -13.125
REMARK INTER:                 -12.057
REMARK INTRA:                  -1.068
REMARK UNBOUND:                -1.179
REMARK SMILES C[C@H]1N[C@@H](N[C@@H](O)N2CCC[C@H]2[C@@H](N)O)S[C@@H]1[C@H]1CCN[C@H](C(C)(C)C(F)(F)F)C1
REMARK SMILES IDX 5 1 4 3 2 4 17 5 3 6 16 7 1 8 18 10 19 11 30 12 20 13 22 14
REMARK SMILES IDX 21 15 23 17 24 18 25 19 26 20 27 21 28 22 29 23 6 24 7 25
REMARK SMILES IDX 8 27 12 28 9 29 11 30 10 31 13 32 15 33 14 35
REMARK H PARENT 5 2 3 9 21 16 7 26 15 34 14 36 14 37
ROOT
ATOM      1  N   UNL     1       0.284  -8.436  13.192  1.00  0.00    -0.255 NA
ATOM      2  H   UNL     1      -0.313  -8.800  12.436  1.00  0.00     0.129 HD
ENDROOT
BRANCH   1   3
ATOM      3  C   UNL     1      -0.366  -8.759  14.368  1.00  0.00     0.185 C 
ATOM      4  C   UNL     1      -0.964  -8.513  16.484  1.00  0.00     0.066 C 
ATOM      5  C   UNL     1      -1.705  -9.657  16.207  1.00  0.00     0.069 C 
ATOM      6  N   UNL     1      -0.219  -8.014  15.434  1.00  0.00    -0.290 NA
ATOM      7  S   UNL     1      -1.405 -10.127  14.551  1.00  0.00    -0.122 SA
ATOM      8  C   UNL     1      -0.929  -7.785  17.789  1.00  0.00     0.025 C 
ATOM      9  H   UNL     1      -0.532  -7.056  15.223  1.00  0.00     0.125 HD
BRANCH   5  10
ATOM     10  C   UNL     1      -2.619 -10.517  16.991  1.00  0.00     0.006 C 
ATOM     11  C   UNL     1      -3.326 -11.556  16.395  1.00  0.00     0.020 C 
ATOM     12  C   UNL     1      -2.761 -10.308  18.359  1.00  0.00     0.024 C 
ATOM     13  C   UNL     1      -4.176 -12.309  17.175  1.00  0.00     0.081 C 
ATOM     14  C   UNL     1      -3.636 -11.140  19.072  1.00  0.00     0.068 C 
ATOM     15  N   UNL     1      -4.349 -12.114  18.490  1.00  0.00    -0.313 NA
ATOM     16  H   UNL     1      -5.345 -11.899  18.640  1.00  0.00     0.122 HD
BRANCH  14  17
ATOM     17  C   UNL     1      -3.793 -11.009  20.607  1.00  0.00     0.076 C 
ATOM     18  C   UNL     1      -4.467  -9.680  20.986  1.00  0.00     0.022 C 
ATOM     19  C   UNL     1      -4.620 -12.184  21.158  1.00  0.00     0.022 C 
BRANCH  17  20
ATOM     20  C   UNL     1      -2.328 -11.035  21.325  1.00  0.00     0.395 C 
ATOM     21  F   UNL     1      -1.705  -9.869  21.158  1.00  0.00    -0.170 F 
ATOM     22  F   UNL     1      -2.395 -11.256  22.633  1.00  0.00    -0.170 F 
ATOM     23  F   UNL     1      -1.545 -11.983  20.823  1.00  0.00    -0.170 F 
ENDBRANCH  17  20
ENDBRANCH  14  17
ENDBRANCH   5  10
ENDBRANCH   1   3
BRANCH   1  24
ATOM     24  C   UNL     1       0.626  -7.130  12.808  1.00  0.00     0.261 C 
BRANCH  24  25
ATOM     25  O   UNL     1      -0.121  -6.185  13.009  1.00  0.00    -0.365 OA
ATOM     26  H   UNL     1      -0.647  -6.000  12.191  1.00  0.00     0.214 HD
ENDBRANCH  24  25
BRANCH  24  27
ATOM     27  N   UNL     1       1.849  -6.950  12.189  1.00  0.00    -0.259 NA
ATOM     28  C   UNL     1       3.079  -6.896  12.995  1.00  0.00     0.104 C 
ATOM     29  C   UNL     1       2.112  -6.807  10.749  1.00  0.00     0.089 C 
ATOM     30  C   UNL     1       4.198  -6.795  11.947  1.00  0.00     0.025 C 
ATOM     31  C   UNL     1       3.526  -6.270  10.700  1.00  0.00     0.017 C 
BRANCH  28  32
ATOM     32  C   UNL     1       3.110  -5.732  13.988  1.00  0.00     0.197 C 
BRANCH  32  33
ATOM     33  O   UNL     1       2.623  -4.640  13.681  1.00  0.00    -0.377 OA
ATOM     34  H   UNL     1       2.338  -4.662  12.733  1.00  0.00     0.212 HD
ENDBRANCH  32  33
BRANCH  32  35
ATOM     35  N   UNL     1       3.740  -5.944  15.132  1.00  0.00    -0.305 NA
ATOM     36  H   UNL     1       3.356  -6.785  15.585  1.00  0.00     0.121 HD
ATOM     37  H   UNL     1       4.745  -6.079  14.951  1.00  0.00     0.121 HD
ENDBRANCH  32  35
ENDBRANCH  28  32
ENDBRANCH  24  27
ENDBRANCH   1  24
TORSDOF 10
ENDMDL
MODEL 8
REMARK VINA RESULT:    -7.911      1.690      2.769
REMARK INTER + INTRA:         -13.021
REMARK INTER:                 -11.682
REMARK INTRA:                  -1.339
REMARK UNBOUND:                -1.179
REMARK SMILES C[C@H]1N[C@@H](N[C@@H](O)N2CCC[C@H]2[C@@H](N)O)S[C@@H]1[C@H]1CCN[C@H](C(C)(C)C(F)(F)F)C1
REMARK SMILES IDX 5 1 4 3 2 4 17 5 3 6 16 7 1 8 18 10 19 11 30 12 20 13 22 14
REMARK SMILES IDX 21 15 23 17 24 18 25 19 26 20 27 21 28 22 29 23 6 24 7 25
REMARK SMILES IDX 8 27 12 28 9 29 11 30 10 31 13 32 15 33 14 35
REMARK H PARENT 5 2 3 9 21 16 7 26 15 34 14 36 14 37
ROOT
ATOM      1  N   UNL     1       0.845  -6.925  14.574  1.00  0.00    -0.255 NA
ATOM      2  H   UNL     1       1.813  -7.234  14.742  1.00  0.00     0.129 HD
ENDROOT
BRANCH   1   3
ATOM      3  C   UNL     1       0.044  -7.844  15.225  1.00  0.00     0.185 C 
ATOM      4  C   UNL     1      -1.149  -9.695  15.442  1.00  0.00     0.066 C 
ATOM      5  C   UNL     1      -1.310  -9.209  16.736  1.00  0.00     0.069 C 
ATOM      6  N   UNL     1      -0.376  -8.916  14.604  1.00  0.00    -0.290 NA
ATOM      7  S   UNL     1      -0.470  -7.683  16.866  1.00  0.00    -0.122 SA
ATOM      8  C   UNL     1      -1.712 -10.972  14.908  1.00  0.00     0.025 C 
ATOM      9  H   UNL     1       0.436  -9.464  14.287  1.00  0.00     0.125 HD
BRANCH   5  10
ATOM     10  C   UNL     1      -2.026  -9.684  17.941  1.00  0.00     0.006 C 
ATOM     11  C   UNL     1      -3.215 -10.397  17.843  1.00  0.00     0.020 C 
ATOM     12  C   UNL     1      -1.492  -9.441  19.203  1.00  0.00     0.024 C 
ATOM     13  C   UNL     1      -3.844 -10.795  19.002  1.00  0.00     0.081 C 
ATOM     14  C   UNL     1      -2.196  -9.904  20.324  1.00  0.00     0.068 C 
ATOM     15  N   UNL     1      -3.364 -10.554  20.230  1.00  0.00    -0.313 NA
ATOM     16  H   UNL     1      -4.069  -9.995  20.732  1.00  0.00     0.122 HD
BRANCH  14  17
ATOM     17  C   UNL     1      -1.629  -9.728  21.754  1.00  0.00     0.076 C 
ATOM     18  C   UNL     1      -2.269 -10.726  22.733  1.00  0.00     0.022 C 
ATOM     19  C   UNL     1      -0.102  -9.919  21.746  1.00  0.00     0.022 C 
BRANCH  17  20
ATOM     20  C   UNL     1      -1.953  -8.227  22.306  1.00  0.00     0.395 C 
ATOM     21  F   UNL     1      -1.802  -8.174  23.629  1.00  0.00    -0.170 F 
ATOM     22  F   UNL     1      -1.157  -7.300  21.786  1.00  0.00    -0.170 F 
ATOM     23  F   UNL     1      -3.197  -7.854  22.029  1.00  0.00    -0.170 F 
ENDBRANCH  17  20
ENDBRANCH  14  17
ENDBRANCH   5  10
ENDBRANCH   1   3
BRANCH   1  24
ATOM     24  C   UNL     1       0.772  -6.641  13.202  1.00  0.00     0.261 C 
BRANCH  24  25
ATOM     25  O   UNL     1      -0.180  -6.045  12.719  1.00  0.00    -0.365 OA
ATOM     26  H   UNL     1      -1.022  -6.461  13.032  1.00  0.00     0.214 HD
ENDBRANCH  24  25
BRANCH  24  27
ATOM     27  N   UNL     1       1.823  -7.060  12.409  1.00  0.00    -0.259 NA
ATOM     28  C   UNL     1       1.555  -7.735  11.129  1.00  0.00     0.104 C 
ATOM     29  C   UNL     1       3.263  -6.910  12.675  1.00  0.00     0.089 C 
ATOM     30  C   UNL     1       2.953  -7.938  10.523  1.00  0.00     0.025 C 
ATOM     31  C   UNL     1       3.906  -7.864  11.692  1.00  0.00     0.017 C 
BRANCH  28  32
ATOM     32  C   UNL     1       0.793  -9.053  11.279  1.00  0.00     0.197 C 
BRANCH  32  33
ATOM     33  O   UNL     1      -0.378  -9.053  11.670  1.00  0.00    -0.377 OA
ATOM     34  H   UNL     1      -0.395  -9.017  12.659  1.00  0.00     0.212 HD
ENDBRANCH  32  33
BRANCH  32  35
ATOM     35  N   UNL     1       1.474 -10.163  11.044  1.00  0.00    -0.305 NA
ATOM     36  H   UNL     1       0.832 -10.967  11.048  1.00  0.00     0.121 HD
ATOM     37  H   UNL     1       1.934 -10.095  10.124  1.00  0.00     0.121 HD
ENDBRANCH  32  35
ENDBRANCH  28  32
ENDBRANCH  24  27
ENDBRANCH   1  24
TORSDOF 10
ENDMDL
MODEL 9
REMARK VINA RESULT:    -7.850      2.150      3.536
REMARK INTER + INTRA:         -12.929
REMARK INTER:                 -11.819
REMARK INTRA:                  -1.110
REMARK UNBOUND:                -1.179
REMARK SMILES C[C@H]1N[C@@H](N[C@@H](O)N2CCC[C@H]2[C@@H](N)O)S[C@@H]1[C@H]1CCN[C@H](C(C)(C)C(F)(F)F)C1
REMARK SMILES IDX 5 1 4 3 2 4 17 5 3 6 16 7 1 8 18 10 19 11 30 12 20 13 22 14
REMARK SMILES IDX 21 15 23 17 24 18 25 19 26 20 27 21 28 22 29 23 6 24 7 25
REMARK SMILES IDX 8 27 12 28 9 29 11 30 10 31 13 32 15 33 14 35
REMARK H PARENT 5 2 3 9 21 16 7 26 15 34 14 36 14 37
ROOT
ATOM      1  N   UNL     1       0.859  -7.134  12.738  1.00  0.00    -0.255 NA
ATOM      2  H   UNL     1       0.585  -6.142  12.718  1.00  0.00     0.129 HD
ENDROOT
BRANCH   1   3
ATOM      3  C   UNL     1       0.251  -7.665  13.860  1.00  0.00     0.185 C 
ATOM      4  C   UNL     1      -0.678  -9.241  15.103  1.00  0.00     0.066 C 
ATOM      5  C   UNL     1      -0.753  -8.201  16.024  1.00  0.00     0.069 C 
ATOM      6  N   UNL     1      -0.103  -8.924  13.889  1.00  0.00    -0.290 NA
ATOM      7  S   UNL     1      -0.093  -6.759  15.290  1.00  0.00    -0.122 SA
ATOM      8  C   UNL     1      -1.139 -10.645  15.327  1.00  0.00     0.025 C 
ATOM      9  H   UNL     1       0.730  -9.513  13.746  1.00  0.00     0.125 HD
BRANCH   5  10
ATOM     10  C   UNL     1      -1.269  -8.072  17.405  1.00  0.00     0.006 C 
ATOM     11  C   UNL     1      -1.266  -6.850  18.068  1.00  0.00     0.020 C 
ATOM     12  C   UNL     1      -1.796  -9.185  18.053  1.00  0.00     0.024 C 
ATOM     13  C   UNL     1      -1.742  -6.799  19.360  1.00  0.00     0.081 C 
ATOM     14  C   UNL     1      -2.276  -9.029  19.361  1.00  0.00     0.068 C 
ATOM     15  N   UNL     1      -2.234  -7.860  20.015  1.00  0.00    -0.313 NA
ATOM     16  H   UNL     1      -1.655  -7.998  20.856  1.00  0.00     0.122 HD
BRANCH  14  17
ATOM     17  C   UNL     1      -2.937 -10.207  20.118  1.00  0.00     0.076 C 
ATOM     18  C   UNL     1      -4.038  -9.710  21.069  1.00  0.00     0.022 C 
ATOM     19  C   UNL     1      -3.532 -11.213  19.117  1.00  0.00     0.022 C 
BRANCH  17  20
ATOM     20  C   UNL     1      -1.826 -10.986  21.024  1.00  0.00     0.395 C 
ATOM     21  F   UNL     1      -2.273 -11.155  22.268  1.00  0.00    -0.170 F 
ATOM     22  F   UNL     1      -1.524 -12.190  20.553  1.00  0.00    -0.170 F 
ATOM     23  F   UNL     1      -0.683 -10.312  21.097  1.00  0.00    -0.170 F 
ENDBRANCH  17  20
ENDBRANCH  14  17
ENDBRANCH   5  10
ENDBRANCH   1   3
BRANCH   1  24
ATOM     24  C   UNL     1       2.243  -7.149  12.504  1.00  0.00     0.261 C 
BRANCH  24  25
ATOM     25  O   UNL     1       3.050  -7.077  13.419  1.00  0.00    -0.365 OA
ATOM     26  H   UNL     1       3.040  -7.922  13.935  1.00  0.00     0.214 HD
ENDBRANCH  24  25
BRANCH  24  27
ATOM     27  N   UNL     1       2.664  -7.250  11.192  1.00  0.00    -0.259 NA
ATOM     28  C   UNL     1       1.730  -7.715  10.154  1.00  0.00     0.104 C 
ATOM     29  C   UNL     1       3.993  -6.928  10.650  1.00  0.00     0.089 C 
ATOM     30  C   UNL     1       2.536  -7.585   8.852  1.00  0.00     0.025 C 
ATOM     31  C   UNL     1       3.984  -7.576   9.282  1.00  0.00     0.017 C 
BRANCH  28  32
ATOM     32  C   UNL     1       1.224  -9.141  10.381  1.00  0.00     0.197 C 
BRANCH  32  33
ATOM     33  O   UNL     1       1.993 -10.100  10.261  1.00  0.00    -0.377 OA
ATOM     34  H   UNL     1       1.551 -10.920  10.594  1.00  0.00     0.212 HD
ENDBRANCH  32  33
BRANCH  32  35
ATOM     35  N   UNL     1      -0.067  -9.281  10.632  1.00  0.00    -0.305 NA
ATOM     36  H   UNL     1      -0.192  -9.834  11.492  1.00  0.00     0.121 HD
ATOM     37  H   UNL     1      -0.496  -8.352  10.756  1.00  0.00     0.121 HD
ENDBRANCH  32  35
ENDBRANCH  28  32
ENDBRANCH  24  27
ENDBRANCH   1  24
TORSDOF 10
ENDMDL
MODEL 10
REMARK VINA RESULT:    -7.845      2.857      4.260
REMARK INTER + INTRA:         -12.922
REMARK INTER:                 -12.496
REMARK INTRA:                  -0.426
REMARK UNBOUND:                -1.179
REMARK SMILES C[C@H]1N[C@@H](N[C@@H](O)N2CCC[C@H]2[C@@H](N)O)S[C@@H]1[C@H]1CCN[C@H](C(C)(C)C(F)(F)F)C1
REMARK SMILES IDX 5 1 4 3 2 4 17 5 3 6 16 7 1 8 18 10 19 11 30 12 20 13 22 14
REMARK SMILES IDX 21 15 23 17 24 18 25 19 26 20 27 21 28 22 29 23 6 24 7 25
REMARK SMILES IDX 8 27 12 28 9 29 11 30 10 31 13 32 15 33 14 35
REMARK H PARENT 5 2 3 9 21 16 7 26 15 34 14 36 14 37
ROOT
ATOM      1  N   UNL     1       1.045  -7.768  11.884  1.00  0.00    -0.255 NA
ATOM      2  H   UNL     1       2.028  -7.603  12.142  1.00  0.00     0.129 HD
ENDROOT
BRANCH   1   3
ATOM      3  C   UNL     1       0.426  -8.201  13.042  1.00  0.00     0.185 C 
ATOM      4  C   UNL     1      -0.714  -9.594  14.328  1.00  0.00     0.066 C 
ATOM      5  C   UNL     1      -0.503  -8.592  15.270  1.00  0.00     0.069 C 
ATOM      6  N   UNL     1      -0.178  -9.361  13.078  1.00  0.00    -0.290 NA
ATOM      7  S   UNL     1       0.384  -7.292  14.510  1.00  0.00    -0.122 SA
ATOM      8  C   UNL     1      -1.437 -10.881  14.564  1.00  0.00     0.025 C 
ATOM      9  H   UNL     1       0.502 -10.103  12.858  1.00  0.00     0.125 HD
BRANCH   5  10
ATOM     10  C   UNL     1      -0.876  -8.407  16.690  1.00  0.00     0.006 C 
ATOM     11  C   UNL     1      -0.590  -7.225  17.366  1.00  0.00     0.020 C 
ATOM     12  C   UNL     1      -1.552  -9.418  17.365  1.00  0.00     0.024 C 
ATOM     13  C   UNL     1      -0.947  -7.121  18.692  1.00  0.00     0.081 C 
ATOM     14  C   UNL     1      -1.891  -9.210  18.710  1.00  0.00     0.068 C 
ATOM     15  N   UNL     1      -1.578  -8.089  19.372  1.00  0.00    -0.313 NA
ATOM     16  H   UNL     1      -0.972  -8.356  20.161  1.00  0.00     0.122 HD
BRANCH  14  17
ATOM     17  C   UNL     1      -2.702 -10.264  19.503  1.00  0.00     0.076 C 
ATOM     18  C   UNL     1      -1.774 -11.262  20.214  1.00  0.00     0.022 C 
ATOM     19  C   UNL     1      -3.605  -9.569  20.538  1.00  0.00     0.022 C 
BRANCH  17  20
ATOM     20  C   UNL     1      -3.653 -11.120  18.490  1.00  0.00     0.395 C 
ATOM     21  F   UNL     1      -4.116 -10.341  17.513  1.00  0.00    -0.170 F 
ATOM     22  F   UNL     1      -3.016 -12.132  17.911  1.00  0.00    -0.170 F 
ATOM     23  F   UNL     1      -4.701 -11.644  19.115  1.00  0.00    -0.170 F 
ENDBRANCH  17  20
ENDBRANCH  14  17
ENDBRANCH   5  10
ENDBRANCH   1   3
BRANCH   1  24
ATOM     24  C   UNL     1       1.085  -8.498  10.687  1.00  0.00     0.261 C 
BRANCH  24  25
ATOM     25  O   UNL     1       0.195  -9.276  10.378  1.00  0.00    -0.365 OA
ATOM     26  H   UNL     1      -0.656  -8.780  10.275  1.00  0.00     0.214 HD
ENDBRANCH  24  25
BRANCH  24  27
ATOM     27  N   UNL     1       2.176  -8.303   9.861  1.00  0.00    -0.259 NA
ATOM     28  C   UNL     1       2.752  -9.440   9.124  1.00  0.00     0.104 C 
ATOM     29  C   UNL     1       2.881  -7.040   9.589  1.00  0.00     0.089 C 
ATOM     30  C   UNL     1       3.852  -8.797   8.264  1.00  0.00     0.025 C 
ATOM     31  C   UNL     1       4.175  -7.489   8.946  1.00  0.00     0.017 C 
BRANCH  28  32
ATOM     32  C   UNL     1       3.300 -10.543  10.032  1.00  0.00     0.197 C 
BRANCH  32  33
ATOM     33  O   UNL     1       2.548 -11.140  10.808  1.00  0.00    -0.377 OA
ATOM     34  H   UNL     1       2.048 -11.836  10.312  1.00  0.00     0.212 HD
ENDBRANCH  32  33
BRANCH  32  35
ATOM     35  N   UNL     1       4.605 -10.757   9.986  1.00  0.00    -0.305 NA
ATOM     36  H   UNL     1       5.100  -9.941  10.372  1.00  0.00     0.121 HD
ATOM     37  H   UNL     1       4.836 -11.593  10.541  1.00  0.00     0.121 HD
ENDBRANCH  32  35
ENDBRANCH  28  32
ENDBRANCH  24  27
ENDBRANCH   1  24
TORSDOF 10
ENDMDL
MODEL 11
REMARK VINA RESULT:    -7.744      1.513      2.259
REMARK INTER + INTRA:         -12.770
REMARK INTER:                 -11.561
REMARK INTRA:                  -1.209
REMARK UNBOUND:                -1.179
REMARK SMILES C[C@H]1N[C@@H](N[C@@H](O)N2CCC[C@H]2[C@@H](N)O)S[C@@H]1[C@H]1CCN[C@H](C(C)(C)C(F)(F)F)C1
REMARK SMILES IDX 5 1 4 3 2 4 17 5 3 6 16 7 1 8 18 10 19 11 30 12 20 13 22 14
REMARK SMILES IDX 21 15 23 17 24 18 25 19 26 20 27 21 28 22 29 23 6 24 7 25
REMARK SMILES IDX 8 27 12 28 9 29 11 30 10 31 13 32 15 33 14 35
REMARK H PARENT 5 2 3 9 21 16 7 26 15 34 14 36 14 37
ROOT
ATOM      1  N   UNL     1       0.494  -6.793  14.615  1.00  0.00    -0.255 NA
ATOM      2  H   UNL     1       1.475  -6.936  14.895  1.00  0.00     0.129 HD
ENDROOT
BRANCH   1   3
ATOM      3  C   UNL     1      -0.218  -7.809  15.225  1.00  0.00     0.185 C 
ATOM      4  C   UNL     1      -1.114  -9.823  15.413  1.00  0.00     0.066 C 
ATOM      5  C   UNL     1      -1.495  -9.326  16.656  1.00  0.00     0.069 C 
ATOM      6  N   UNL     1      -0.387  -8.956  14.621  1.00  0.00    -0.290 NA
ATOM      7  S   UNL     1      -0.932  -7.677  16.793  1.00  0.00    -0.122 SA
ATOM      8  C   UNL     1      -1.401 -11.193  14.891  1.00  0.00     0.025 C 
ATOM      9  H   UNL     1       0.533  -9.373  14.421  1.00  0.00     0.125 HD
BRANCH   5  10
ATOM     10  C   UNL     1      -2.257  -9.870  17.802  1.00  0.00     0.006 C 
ATOM     11  C   UNL     1      -3.348 -10.711  17.613  1.00  0.00     0.020 C 
ATOM     12  C   UNL     1      -1.864  -9.563  19.101  1.00  0.00     0.024 C 
ATOM     13  C   UNL     1      -4.027 -11.169  18.720  1.00  0.00     0.081 C 
ATOM     14  C   UNL     1      -2.608 -10.094  20.165  1.00  0.00     0.068 C 
ATOM     15  N   UNL     1      -3.685 -10.870  19.981  1.00  0.00    -0.313 NA
ATOM     16  H   UNL     1      -4.488 -10.390  20.413  1.00  0.00     0.122 HD
BRANCH  14  17
ATOM     17  C   UNL     1      -2.189  -9.850  21.635  1.00  0.00     0.076 C 
ATOM     18  C   UNL     1      -1.761  -8.390  21.856  1.00  0.00     0.022 C 
ATOM     19  C   UNL     1      -3.350 -10.198  22.583  1.00  0.00     0.022 C 
BRANCH  17  20
ATOM     20  C   UNL     1      -0.915 -10.794  22.020  1.00  0.00     0.395 C 
ATOM     21  F   UNL     1       0.229 -10.147  21.804  1.00  0.00    -0.170 F 
ATOM     22  F   UNL     1      -0.915 -11.170  23.294  1.00  0.00    -0.170 F 
ATOM     23  F   UNL     1      -0.888 -11.909  21.299  1.00  0.00    -0.170 F 
ENDBRANCH  17  20
ENDBRANCH  14  17
ENDBRANCH   5  10
ENDBRANCH   1   3
BRANCH   1  24
ATOM     24  C   UNL     1       0.525  -6.568  13.230  1.00  0.00     0.261 C 
BRANCH  24  25
ATOM     25  O   UNL     1      -0.324  -5.889  12.671  1.00  0.00    -0.365 OA
ATOM     26  H   UNL     1      -0.585  -6.323  11.820  1.00  0.00     0.214 HD
ENDBRANCH  24  25
BRANCH  24  27
ATOM     27  N   UNL     1       1.557  -7.145  12.516  1.00  0.00    -0.259 NA
ATOM     28  C   UNL     1       2.913  -6.577  12.594  1.00  0.00     0.104 C 
ATOM     29  C   UNL     1       1.491  -8.327  11.642  1.00  0.00     0.089 C 
ATOM     30  C   UNL     1       3.764  -7.548  11.760  1.00  0.00     0.025 C 
ATOM     31  C   UNL     1       2.783  -8.260  10.858  1.00  0.00     0.017 C 
BRANCH  28  32
ATOM     32  C   UNL     1       3.004  -5.140  12.078  1.00  0.00     0.197 C 
BRANCH  32  33
ATOM     33  O   UNL     1       3.030  -4.195  12.872  1.00  0.00    -0.377 OA
ATOM     34  H   UNL     1       3.198  -4.536  13.785  1.00  0.00     0.212 HD
ENDBRANCH  32  33
BRANCH  32  35
ATOM     35  N   UNL     1       2.979  -4.977  10.765  1.00  0.00    -0.305 NA
ATOM     36  H   UNL     1       2.312  -5.642  10.350  1.00  0.00     0.121 HD
ATOM     37  H   UNL     1       2.687  -4.015  10.543  1.00  0.00     0.121 HD
ENDBRANCH  32  35
ENDBRANCH  28  32
ENDBRANCH  24  27
ENDBRANCH   1  24
TORSDOF 10
ENDMDL
MODEL 12
REMARK VINA RESULT:    -7.714      2.750      4.162
REMARK INTER + INTRA:         -12.726
REMARK INTER:                 -12.030
REMARK INTRA:                  -0.696
REMARK UNBOUND:                -1.179
REMARK SMILES C[C@H]1N[C@@H](N[C@@H](O)N2CCC[C@H]2[C@@H](N)O)S[C@@H]1[C@H]1CCN[C@H](C(C)(C)C(F)(F)F)C1
REMARK SMILES IDX 5 1 4 3 2 4 17 5 3 6 16 7 1 8 18 10 19 11 30 12 20 13 22 14
REMARK SMILES IDX 21 15 23 17 24 18 25 19 26 20 27 21 28 22 29 23 6 24 7 25
REMARK SMILES IDX 8 27 12 28 9 29 11 30 10 31 13 32 15 33 14 35
REMARK H PARENT 5 2 3 9 21 16 7 26 15 34 14 36 14 37
ROOT
ATOM      1  N   UNL     1       0.409  -9.763  11.901  1.00  0.00    -0.255 NA
ATOM      2  H   UNL     1      -0.515 -10.108  11.607  1.00  0.00     0.129 HD
ENDROOT
BRANCH   1   3
ATOM      3  C   UNL     1       0.196  -9.101  13.095  1.00  0.00     0.185 C 
ATOM      4  C   UNL     1       0.337  -7.428  14.535  1.00  0.00     0.066 C 
ATOM      5  C   UNL     1      -0.435  -8.285  15.313  1.00  0.00     0.069 C 
ATOM      6  N   UNL     1       0.679  -7.900  13.284  1.00  0.00    -0.290 NA
ATOM      7  S   UNL     1      -0.699  -9.762  14.417  1.00  0.00    -0.122 SA
ATOM      8  C   UNL     1       0.795  -6.060  14.929  1.00  0.00     0.025 C 
ATOM      9  H   UNL     1       0.298  -7.266  12.568  1.00  0.00     0.125 HD
BRANCH   5  10
ATOM     10  C   UNL     1      -1.019  -8.212  16.670  1.00  0.00     0.006 C 
ATOM     11  C   UNL     1      -1.047  -7.019  17.384  1.00  0.00     0.020 C 
ATOM     12  C   UNL     1      -1.581  -9.349  17.243  1.00  0.00     0.024 C 
ATOM     13  C   UNL     1      -1.588  -7.021  18.651  1.00  0.00     0.081 C 
ATOM     14  C   UNL     1      -2.126  -9.246  18.531  1.00  0.00     0.068 C 
ATOM     15  N   UNL     1      -2.114  -8.106  19.235  1.00  0.00    -0.313 NA
ATOM     16  H   UNL     1      -1.579  -8.282  20.097  1.00  0.00     0.122 HD
BRANCH  14  17
ATOM     17  C   UNL     1      -2.828 -10.452  19.202  1.00  0.00     0.076 C 
ATOM     18  C   UNL     1      -1.825 -11.309  19.992  1.00  0.00     0.022 C 
ATOM     19  C   UNL     1      -3.943  -9.961  20.142  1.00  0.00     0.022 C 
BRANCH  17  20
ATOM     20  C   UNL     1      -3.502 -11.412  18.068  1.00  0.00     0.395 C 
ATOM     21  F   UNL     1      -2.599 -12.257  17.573  1.00  0.00    -0.170 F 
ATOM     22  F   UNL     1      -4.504 -12.146  18.538  1.00  0.00    -0.170 F 
ATOM     23  F   UNL     1      -3.994 -10.711  17.052  1.00  0.00    -0.170 F 
ENDBRANCH  17  20
ENDBRANCH  14  17
ENDBRANCH   5  10
ENDBRANCH   1   3
BRANCH   1  24
ATOM     24  C   UNL     1       0.975  -9.176  10.759  1.00  0.00     0.261 C 
BRANCH  24  25
ATOM     25  O   UNL     1       0.287  -8.631   9.910  1.00  0.00    -0.365 OA
ATOM     26  H   UNL     1       0.873  -8.177   9.252  1.00  0.00     0.214 HD
ENDBRANCH  24  25
BRANCH  24  27
ATOM     27  N   UNL     1       2.349  -9.237  10.629  1.00  0.00    -0.259 NA
ATOM     28  C   UNL     1       3.167  -8.043  10.902  1.00  0.00     0.104 C 
ATOM     29  C   UNL     1       3.163 -10.400  10.242  1.00  0.00     0.089 C 
ATOM     30  C   UNL     1       4.611  -8.548  10.749  1.00  0.00     0.025 C 
ATOM     31  C   UNL     1       4.508  -9.795   9.903  1.00  0.00     0.017 C 
BRANCH  28  32
ATOM     32  C   UNL     1       2.864  -6.868   9.971  1.00  0.00     0.197 C 
BRANCH  32  33
ATOM     33  O   UNL     1       2.654  -7.063   8.771  1.00  0.00    -0.377 OA
ATOM     34  H   UNL     1       1.681  -7.160   8.618  1.00  0.00     0.212 HD
ENDBRANCH  32  33
BRANCH  32  35
ATOM     35  N   UNL     1       2.914  -5.659  10.506  1.00  0.00    -0.305 NA
ATOM     36  H   UNL     1       2.427  -5.664  11.413  1.00  0.00     0.121 HD
ATOM     37  H   UNL     1       3.898  -5.385  10.646  1.00  0.00     0.121 HD
ENDBRANCH  32  35
ENDBRANCH  28  32
ENDBRANCH  24  27
ENDBRANCH   1  24
TORSDOF 10
ENDMDL
MODEL 13
REMARK VINA RESULT:    -7.700      2.180      3.820
REMARK INTER + INTRA:         -12.705
REMARK INTER:                 -11.748
REMARK INTRA:                  -0.957
REMARK UNBOUND:                -1.179
REMARK SMILES C[C@H]1N[C@@H](N[C@@H](O)N2CCC[C@H]2[C@@H](N)O)S[C@@H]1[C@H]1CCN[C@H](C(C)(C)C(F)(F)F)C1
REMARK SMILES IDX 5 1 4 3 2 4 17 5 3 6 16 7 1 8 18 10 19 11 30 12 20 13 22 14
REMARK SMILES IDX 21 15 23 17 24 18 25 19 26 20 27 21 28 22 29 23 6 24 7 25
REMARK SMILES IDX 8 27 12 28 9 29 11 30 10 31 13 32 15 33 14 35
REMARK H PARENT 5 2 3 9 21 16 7 26 15 34 14 36 14 37
ROOT
ATOM      1  N   UNL     1       0.567  -7.758  13.864  1.00  0.00    -0.255 NA
ATOM      2  H   UNL     1      -0.124  -8.421  13.484  1.00  0.00     0.129 HD
ENDROOT
BRANCH   1   3
ATOM      3  C   UNL     1       0.051  -7.335  15.074  1.00  0.00     0.185 C 
ATOM      4  C   UNL     1      -0.615  -5.865  16.587  1.00  0.00     0.066 C 
ATOM      5  C   UNL     1      -0.930  -7.023  17.292  1.00  0.00     0.069 C 
ATOM      6  N   UNL     1      -0.069  -6.059  15.334  1.00  0.00    -0.290 NA
ATOM      7  S   UNL     1      -0.474  -8.405  16.325  1.00  0.00    -0.122 SA
ATOM      8  C   UNL     1      -0.837  -4.465  17.058  1.00  0.00     0.025 C 
ATOM      9  H   UNL     1      -0.681  -5.626  14.628  1.00  0.00     0.125 HD
BRANCH   5  10
ATOM     10  C   UNL     1      -1.513  -7.301  18.624  1.00  0.00     0.006 C 
ATOM     11  C   UNL     1      -1.877  -6.272  19.485  1.00  0.00     0.020 C 
ATOM     12  C   UNL     1      -1.731  -8.617  19.021  1.00  0.00     0.024 C 
ATOM     13  C   UNL     1      -2.397  -6.596  20.718  1.00  0.00     0.081 C 
ATOM     14  C   UNL     1      -2.284  -8.846  20.289  1.00  0.00     0.068 C 
ATOM     15  N   UNL     1      -2.596  -7.855  21.136  1.00  0.00    -0.313 NA
ATOM     16  H   UNL     1      -2.033  -7.989  21.988  1.00  0.00     0.122 HD
BRANCH  14  17
ATOM     17  C   UNL     1      -2.616 -10.279  20.771  1.00  0.00     0.076 C 
ATOM     18  C   UNL     1      -3.843 -10.285  21.697  1.00  0.00     0.022 C 
ATOM     19  C   UNL     1      -2.875 -11.198  19.564  1.00  0.00     0.022 C 
BRANCH  17  20
ATOM     20  C   UNL     1      -1.363 -10.892  21.618  1.00  0.00     0.395 C 
ATOM     21  F   UNL     1      -1.671 -10.977  22.912  1.00  0.00    -0.170 F 
ATOM     22  F   UNL     1      -1.014 -12.109  21.221  1.00  0.00    -0.170 F 
ATOM     23  F   UNL     1      -0.277 -10.135  21.514  1.00  0.00    -0.170 F 
ENDBRANCH  17  20
ENDBRANCH  14  17
ENDBRANCH   5  10
ENDBRANCH   1   3
BRANCH   1  24
ATOM     24  C   UNL     1       0.896  -6.905  12.800  1.00  0.00     0.261 C 
BRANCH  24  25
ATOM     25  O   UNL     1       0.222  -5.921  12.533  1.00  0.00    -0.365 OA
ATOM     26  H   UNL     1      -0.043  -5.465  13.372  1.00  0.00     0.214 HD
ENDBRANCH  24  25
BRANCH  24  27
ATOM     27  N   UNL     1       2.019  -7.218  12.059  1.00  0.00    -0.259 NA
ATOM     28  C   UNL     1       1.875  -7.850  10.736  1.00  0.00     0.104 C 
ATOM     29  C   UNL     1       3.426  -6.986  12.421  1.00  0.00     0.089 C 
ATOM     30  C   UNL     1       3.317  -7.933  10.212  1.00  0.00     0.025 C 
ATOM     31  C   UNL     1       4.191  -7.850  11.441  1.00  0.00     0.017 C 
BRANCH  28  32
ATOM     32  C   UNL     1       1.197  -9.221  10.784  1.00  0.00     0.197 C 
BRANCH  32  33
ATOM     33  O   UNL     1       1.857 -10.232  11.041  1.00  0.00    -0.377 OA
ATOM     34  H   UNL     1       1.263 -11.024  11.031  1.00  0.00     0.212 HD
ENDBRANCH  32  33
BRANCH  32  35
ATOM     35  N   UNL     1      -0.087  -9.260  10.469  1.00  0.00    -0.305 NA
ATOM     36  H   UNL     1      -0.188  -9.452   9.462  1.00  0.00     0.121 HD
ATOM     37  H   UNL     1      -0.552 -10.004  11.009  1.00  0.00     0.121 HD
ENDBRANCH  32  35
ENDBRANCH  28  32
ENDBRANCH  24  27
ENDBRANCH   1  24
TORSDOF 10
ENDMDL
MODEL 14
REMARK VINA RESULT:    -7.686      3.138      4.013
REMARK INTER + INTRA:         -12.684
REMARK INTER:                 -11.529
REMARK INTRA:                  -1.155
REMARK UNBOUND:                -1.179
REMARK SMILES C[C@H]1N[C@@H](N[C@@H](O)N2CCC[C@H]2[C@@H](N)O)S[C@@H]1[C@H]1CCN[C@H](C(C)(C)C(F)(F)F)C1
REMARK SMILES IDX 5 1 4 3 2 4 17 5 3 6 16 7 1 8 18 10 19 11 30 12 20 13 22 14
REMARK SMILES IDX 21 15 23 17 24 18 25 19 26 20 27 21 28 22 29 23 6 24 7 25
REMARK SMILES IDX 8 27 12 28 9 29 11 30 10 31 13 32 15 33 14 35
REMARK H PARENT 5 2 3 9 21 16 7 26 15 34 14 36 14 37
ROOT
ATOM      1  N   UNL     1       0.707  -8.164  12.255  1.00  0.00    -0.255 NA
ATOM      2  H   UNL     1       1.657  -7.904  12.558  1.00  0.00     0.129 HD
ENDROOT
BRANCH   1   3
ATOM      3  C   UNL     1       0.052  -8.579  13.398  1.00  0.00     0.185 C 
ATOM      4  C   UNL     1      -1.158  -9.937  14.657  1.00  0.00     0.066 C 
ATOM      5  C   UNL     1      -0.931  -8.947  15.607  1.00  0.00     0.069 C 
ATOM      6  N   UNL     1      -0.591  -9.718  13.418  1.00  0.00    -0.290 NA
ATOM      7  S   UNL     1       0.014  -7.675  14.870  1.00  0.00    -0.122 SA
ATOM      8  C   UNL     1      -1.929 -11.199  14.873  1.00  0.00     0.025 C 
ATOM      9  H   UNL     1       0.067 -10.482  13.207  1.00  0.00     0.125 HD
BRANCH   5  10
ATOM     10  C   UNL     1      -1.324  -8.754  17.020  1.00  0.00     0.006 C 
ATOM     11  C   UNL     1      -1.899  -9.782  17.759  1.00  0.00     0.020 C 
ATOM     12  C   UNL     1      -1.094  -7.531  17.642  1.00  0.00     0.024 C 
ATOM     13  C   UNL     1      -2.261  -9.535  19.065  1.00  0.00     0.081 C 
ATOM     14  C   UNL     1      -1.479  -7.381  18.982  1.00  0.00     0.068 C 
ATOM     15  N   UNL     1      -2.072  -8.359  19.680  1.00  0.00    -0.313 NA
ATOM     16  H   UNL     1      -2.996  -8.012  19.973  1.00  0.00     0.122 HD
BRANCH  14  17
ATOM     17  C   UNL     1      -1.192  -6.071  19.756  1.00  0.00     0.076 C 
ATOM     18  C   UNL     1      -0.753  -6.363  21.200  1.00  0.00     0.022 C 
ATOM     19  C   UNL     1      -0.102  -5.258  19.037  1.00  0.00     0.022 C 
BRANCH  17  20
ATOM     20  C   UNL     1      -2.543  -5.158  19.833  1.00  0.00     0.395 C 
ATOM     21  F   UNL     1      -3.194  -5.187  18.671  1.00  0.00    -0.170 F 
ATOM     22  F   UNL     1      -3.394  -5.567  20.766  1.00  0.00    -0.170 F 
ATOM     23  F   UNL     1      -2.268  -3.887  20.106  1.00  0.00    -0.170 F 
ENDBRANCH  17  20
ENDBRANCH  14  17
ENDBRANCH   5  10
ENDBRANCH   1   3
BRANCH   1  24
ATOM     24  C   UNL     1       0.880  -8.954  11.108  1.00  0.00     0.261 C 
BRANCH  24  25
ATOM     25  O   UNL     1      -0.069  -9.322  10.433  1.00  0.00    -0.365 OA
ATOM     26  H   UNL     1      -0.692  -8.564  10.297  1.00  0.00     0.214 HD
ENDBRANCH  24  25
BRANCH  24  27
ATOM     27  N   UNL     1       2.173  -9.303  10.767  1.00  0.00    -0.259 NA
ATOM     28  C   UNL     1       3.244  -8.294  10.811  1.00  0.00     0.104 C 
ATOM     29  C   UNL     1       2.664 -10.626  10.350  1.00  0.00     0.089 C 
ATOM     30  C   UNL     1       4.512  -9.092  10.472  1.00  0.00     0.025 C 
ATOM     31  C   UNL     1       4.023 -10.328   9.755  1.00  0.00     0.017 C 
BRANCH  28  32
ATOM     32  C   UNL     1       3.022  -7.125   9.850  1.00  0.00     0.197 C 
BRANCH  32  33
ATOM     33  O   UNL     1       3.268  -7.254   8.647  1.00  0.00    -0.377 OA
ATOM     34  H   UNL     1       2.472  -6.995   8.118  1.00  0.00     0.212 HD
ENDBRANCH  32  33
BRANCH  32  35
ATOM     35  N   UNL     1       2.633  -5.979  10.387  1.00  0.00    -0.305 NA
ATOM     36  H   UNL     1       3.373  -5.274  10.263  1.00  0.00     0.121 HD
ATOM     37  H   UNL     1       1.771  -5.658   9.923  1.00  0.00     0.121 HD
ENDBRANCH  32  35
ENDBRANCH  28  32
ENDBRANCH  24  27
ENDBRANCH   1  24
TORSDOF 10
ENDMDL
MODEL 15
REMARK VINA RESULT:    -7.623      2.228      3.394
REMARK INTER + INTRA:         -12.589
REMARK INTER:                 -11.672
REMARK INTRA:                  -0.916
REMARK UNBOUND:                -1.179
REMARK SMILES C[C@H]1N[C@@H](N[C@@H](O)N2CCC[C@H]2[C@@H](N)O)S[C@@H]1[C@H]1CCN[C@H](C(C)(C)C(F)(F)F)C1
REMARK SMILES IDX 5 1 4 3 2 4 17 5 3 6 16 7 1 8 18 10 19 11 30 12 20 13 22 14
REMARK SMILES IDX 21 15 23 17 24 18 25 19 26 20 27 21 28 22 29 23 6 24 7 25
REMARK SMILES IDX 8 27 12 28 9 29 11 30 10 31 13 32 15 33 14 35
REMARK H PARENT 5 2 3 9 21 16 7 26 15 34 14 36 14 37
ROOT
ATOM      1  N   UNL     1       0.901  -7.068  14.477  1.00  0.00    -0.255 NA
ATOM      2  H   UNL     1       1.695  -7.719  14.556  1.00  0.00     0.129 HD
ENDROOT
BRANCH   1   3
ATOM      3  C   UNL     1      -0.038  -7.513  15.388  1.00  0.00     0.185 C 
ATOM      4  C   UNL     1      -1.508  -7.333  17.032  1.00  0.00     0.066 C 
ATOM      5  C   UNL     1      -1.652  -8.696  16.793  1.00  0.00     0.069 C 
ATOM      6  N   UNL     1      -0.598  -6.679  16.226  1.00  0.00    -0.290 NA
ATOM      7  S   UNL     1      -0.555  -9.157  15.514  1.00  0.00    -0.122 SA
ATOM      8  C   UNL     1      -2.257  -6.537  18.050  1.00  0.00     0.025 C 
ATOM      9  H   UNL     1      -1.085  -5.943  15.695  1.00  0.00     0.125 HD
BRANCH   5  10
ATOM     10  C   UNL     1      -2.479  -9.772  17.385  1.00  0.00     0.006 C 
ATOM     11  C   UNL     1      -3.128 -10.708  16.588  1.00  0.00     0.020 C 
ATOM     12  C   UNL     1      -2.593  -9.874  18.768  1.00  0.00     0.024 C 
ATOM     13  C   UNL     1      -3.898 -11.674  17.199  1.00  0.00     0.081 C 
ATOM     14  C   UNL     1      -3.385 -10.904  19.297  1.00  0.00     0.068 C 
ATOM     15  N   UNL     1      -4.044 -11.781  18.527  1.00  0.00    -0.313 NA
ATOM     16  H   UNL     1      -5.048 -11.680  18.735  1.00  0.00     0.122 HD
BRANCH  14  17
ATOM     17  C   UNL     1      -3.503 -11.119  20.825  1.00  0.00     0.076 C 
ATOM     18  C   UNL     1      -4.453 -12.283  21.151  1.00  0.00     0.022 C 
ATOM     19  C   UNL     1      -2.116 -11.398  21.431  1.00  0.00     0.022 C 
BRANCH  17  20
ATOM     20  C   UNL     1      -4.110  -9.781  21.535  1.00  0.00     0.395 C 
ATOM     21  F   UNL     1      -4.395 -10.019  22.815  1.00  0.00    -0.170 F 
ATOM     22  F   UNL     1      -3.270  -8.753  21.508  1.00  0.00    -0.170 F 
ATOM     23  F   UNL     1      -5.227  -9.370  20.946  1.00  0.00    -0.170 F 
ENDBRANCH  17  20
ENDBRANCH  14  17
ENDBRANCH   5  10
ENDBRANCH   1   3
BRANCH   1  24
ATOM     24  C   UNL     1       0.665  -6.925  13.102  1.00  0.00     0.261 C 
BRANCH  24  25
ATOM     25  O   UNL     1      -0.016  -6.012  12.658  1.00  0.00    -0.365 OA
ATOM     26  H   UNL     1      -0.975  -6.216  12.802  1.00  0.00     0.214 HD
ENDBRANCH  24  25
BRANCH  24  27
ATOM     27  N   UNL     1       1.235  -7.860  12.259  1.00  0.00    -0.259 NA
ATOM     28  C   UNL     1       2.546  -7.593  11.645  1.00  0.00     0.104 C 
ATOM     29  C   UNL     1       0.689  -9.170  11.872  1.00  0.00     0.089 C 
ATOM     30  C   UNL     1       2.864  -8.890  10.884  1.00  0.00     0.025 C 
ATOM     31  C   UNL     1       1.529  -9.565  10.677  1.00  0.00     0.017 C 
BRANCH  28  32
ATOM     32  C   UNL     1       2.555  -6.368  10.727  1.00  0.00     0.197 C 
BRANCH  32  33
ATOM     33  O   UNL     1       2.527  -5.232  11.207  1.00  0.00    -0.377 OA
ATOM     34  H   UNL     1       2.949  -4.597  10.575  1.00  0.00     0.212 HD
ENDBRANCH  32  33
BRANCH  32  35
ATOM     35  N   UNL     1       2.518  -6.602   9.425  1.00  0.00    -0.305 NA
ATOM     36  H   UNL     1       3.169  -5.966   8.944  1.00  0.00     0.121 HD
ATOM     37  H   UNL     1       2.793  -7.577   9.243  1.00  0.00     0.121 HD
ENDBRANCH  32  35
ENDBRANCH  28  32
ENDBRANCH  24  27
ENDBRANCH   1  24
TORSDOF 10
ENDMDL
MODEL 16
REMARK VINA RESULT:    -7.535      2.183      2.855
REMARK INTER + INTRA:         -12.457
REMARK INTER:                 -12.008
REMARK INTRA:                  -0.450
REMARK UNBOUND:                -1.179
REMARK SMILES C[C@H]1N[C@@H](N[C@@H](O)N2CCC[C@H]2[C@@H](N)O)S[C@@H]1[C@H]1CCN[C@H](C(C)(C)C(F)(F)F)C1
REMARK SMILES IDX 5 1 4 3 2 4 17 5 3 6 16 7 1 8 18 10 19 11 30 12 20 13 22 14
REMARK SMILES IDX 21 15 23 17 24 18 25 19 26 20 27 21 28 22 29 23 6 24 7 25
REMARK SMILES IDX 8 27 12 28 9 29 11 30 10 31 13 32 15 33 14 35
REMARK H PARENT 5 2 3 9 21 16 7 26 15 34 14 36 14 37
ROOT
ATOM      1  N   UNL     1      -0.218 -10.073  12.873  1.00  0.00    -0.255 NA
ATOM      2  H   UNL     1      -0.909 -10.375  12.172  1.00  0.00     0.129 HD
ENDROOT
BRANCH   1   3
ATOM      3  C   UNL     1      -0.902 -10.030  14.073  1.00  0.00     0.185 C 
ATOM      4  C   UNL     1      -2.440 -10.622  15.549  1.00  0.00     0.066 C 
ATOM      5  C   UNL     1      -1.799  -9.654  16.317  1.00  0.00     0.069 C 
ATOM      6  N   UNL     1      -1.917 -10.826  14.288  1.00  0.00    -0.290 NA
ATOM      7  S   UNL     1      -0.504  -8.960  15.371  1.00  0.00    -0.122 SA
ATOM      8  C   UNL     1      -3.605 -11.452  15.980  1.00  0.00     0.025 C 
ATOM      9  H   UNL     1      -1.602 -11.804  14.208  1.00  0.00     0.125 HD
BRANCH   5  10
ATOM     10  C   UNL     1      -1.998  -9.110  17.679  1.00  0.00     0.006 C 
ATOM     11  C   UNL     1      -2.040  -7.740  17.913  1.00  0.00     0.020 C 
ATOM     12  C   UNL     1      -2.174  -9.979  18.751  1.00  0.00     0.024 C 
ATOM     13  C   UNL     1      -2.208  -7.297  19.206  1.00  0.00     0.081 C 
ATOM     14  C   UNL     1      -2.359  -9.432  20.029  1.00  0.00     0.068 C 
ATOM     15  N   UNL     1      -2.357  -8.112  20.260  1.00  0.00    -0.313 NA
ATOM     16  H   UNL     1      -1.586  -7.914  20.914  1.00  0.00     0.122 HD
BRANCH  14  17
ATOM     17  C   UNL     1      -2.628 -10.336  21.256  1.00  0.00     0.076 C 
ATOM     18  C   UNL     1      -1.671 -11.539  21.282  1.00  0.00     0.022 C 
ATOM     19  C   UNL     1      -2.477  -9.526  22.556  1.00  0.00     0.022 C 
BRANCH  17  20
ATOM     20  C   UNL     1      -4.149 -10.925  21.197  1.00  0.00     0.395 C 
ATOM     21  F   UNL     1      -4.134 -12.236  20.958  1.00  0.00    -0.170 F 
ATOM     22  F   UNL     1      -4.821 -10.743  22.327  1.00  0.00    -0.170 F 
ATOM     23  F   UNL     1      -4.866 -10.352  20.236  1.00  0.00    -0.170 F 
ENDBRANCH  17  20
ENDBRANCH  14  17
ENDBRANCH   5  10
ENDBRANCH   1   3
BRANCH   1  24
ATOM     24  C   UNL     1       0.450  -8.981  12.301  1.00  0.00     0.261 C 
BRANCH  24  25
ATOM     25  O   UNL     1       0.073  -7.832  12.479  1.00  0.00    -0.365 OA
ATOM     26  H   UNL     1       0.473  -7.479  13.313  1.00  0.00     0.214 HD
ENDBRANCH  24  25
BRANCH  24  27
ATOM     27  N   UNL     1       1.559  -9.251  11.523  1.00  0.00    -0.259 NA
ATOM     28  C   UNL     1       2.550  -8.194  11.261  1.00  0.00     0.104 C 
ATOM     29  C   UNL     1       1.919 -10.529  10.887  1.00  0.00     0.089 C 
ATOM     30  C   UNL     1       3.651  -8.913  10.466  1.00  0.00     0.025 C 
ATOM     31  C   UNL     1       2.985 -10.139   9.886  1.00  0.00     0.017 C 
BRANCH  28  32
ATOM     32  C   UNL     1       1.978  -6.995  10.501  1.00  0.00     0.197 C 
BRANCH  32  33
ATOM     33  O   UNL     1       1.110  -7.161   9.640  1.00  0.00    -0.377 OA
ATOM     34  H   UNL     1       1.100  -6.383   9.028  1.00  0.00     0.212 HD
ENDBRANCH  32  33
BRANCH  32  35
ATOM     35  N   UNL     1       2.512  -5.814  10.767  1.00  0.00    -0.305 NA
ATOM     36  H   UNL     1       2.566  -5.259   9.902  1.00  0.00     0.121 HD
ATOM     37  H   UNL     1       1.928  -5.319  11.456  1.00  0.00     0.121 HD
ENDBRANCH  32  35
ENDBRANCH  28  32
ENDBRANCH  24  27
ENDBRANCH   1  24
TORSDOF 10
ENDMDL
MODEL 17
REMARK VINA RESULT:    -7.496      1.805      2.538
REMARK INTER + INTRA:         -12.399
REMARK INTER:                 -11.309
REMARK INTRA:                  -1.090
REMARK UNBOUND:                -1.179
REMARK SMILES C[C@H]1N[C@@H](N[C@@H](O)N2CCC[C@H]2[C@@H](N)O)S[C@@H]1[C@H]1CCN[C@H](C(C)(C)C(F)(F)F)C1
REMARK SMILES IDX 5 1 4 3 2 4 17 5 3 6 16 7 1 8 18 10 19 11 30 12 20 13 22 14
REMARK SMILES IDX 21 15 23 17 24 18 25 19 26 20 27 21 28 22 29 23 6 24 7 25
REMARK SMILES IDX 8 27 12 28 9 29 11 30 10 31 13 32 15 33 14 35
REMARK H PARENT 5 2 3 9 21 16 7 26 15 34 14 36 14 37
ROOT
ATOM      1  N   UNL     1       0.446  -6.257  14.901  1.00  0.00    -0.255 NA
ATOM      2  H   UNL     1       1.390  -6.269  15.313  1.00  0.00     0.129 HD
ENDROOT
BRANCH   1   3
ATOM      3  C   UNL     1      -0.186  -7.387  15.386  1.00  0.00     0.185 C 
ATOM      4  C   UNL     1      -0.811  -9.509  15.396  1.00  0.00     0.066 C 
ATOM      5  C   UNL     1      -1.400  -9.129  16.597  1.00  0.00     0.069 C 
ATOM      6  N   UNL     1      -0.123  -8.516  14.728  1.00  0.00    -0.290 NA
ATOM      7  S   UNL     1      -1.090  -7.429  16.857  1.00  0.00    -0.122 SA
ATOM      8  C   UNL     1      -0.843 -10.878  14.798  1.00  0.00     0.025 C 
ATOM      9  H   UNL     1       0.863  -8.795  14.629  1.00  0.00     0.125 HD
BRANCH   5  10
ATOM     10  C   UNL     1      -2.208  -9.826  17.623  1.00  0.00     0.006 C 
ATOM     11  C   UNL     1      -3.224 -10.707  17.269  1.00  0.00     0.020 C 
ATOM     12  C   UNL     1      -1.937  -9.623  18.973  1.00  0.00     0.024 C 
ATOM     13  C   UNL     1      -3.953 -11.310  18.271  1.00  0.00     0.081 C 
ATOM     14  C   UNL     1      -2.722 -10.298  19.919  1.00  0.00     0.068 C 
ATOM     15  N   UNL     1      -3.728 -11.114  19.578  1.00  0.00    -0.313 NA
ATOM     16  H   UNL     1      -4.591 -10.727  19.984  1.00  0.00     0.122 HD
BRANCH  14  17
ATOM     17  C   UNL     1      -2.433 -10.172  21.435  1.00  0.00     0.076 C 
ATOM     18  C   UNL     1      -2.250  -8.703  21.846  1.00  0.00     0.022 C 
ATOM     19  C   UNL     1      -3.580 -10.799  22.247  1.00  0.00     0.022 C 
BRANCH  17  20
ATOM     20  C   UNL     1      -1.053 -10.959  21.810  1.00  0.00     0.395 C 
ATOM     21  F   UNL     1      -0.966 -12.101  21.129  1.00  0.00    -0.170 F 
ATOM     22  F   UNL     1       0.038 -10.255  21.530  1.00  0.00    -0.170 F 
ATOM     23  F   UNL     1      -0.987 -11.257  23.103  1.00  0.00    -0.170 F 
ENDBRANCH  17  20
ENDBRANCH  14  17
ENDBRANCH   5  10
ENDBRANCH   1   3
BRANCH   1  24
ATOM     24  C   UNL     1       0.630  -5.974  13.540  1.00  0.00     0.261 C 
BRANCH  24  25
ATOM     25  O   UNL     1      -0.287  -6.054  12.737  1.00  0.00    -0.365 OA
ATOM     26  H   UNL     1      -0.717  -6.943  12.813  1.00  0.00     0.214 HD
ENDBRANCH  24  25
BRANCH  24  27
ATOM     27  N   UNL     1       1.897  -5.599  13.135  1.00  0.00    -0.259 NA
ATOM     28  C   UNL     1       3.074  -6.031  13.908  1.00  0.00     0.104 C 
ATOM     29  C   UNL     1       2.261  -4.788  11.963  1.00  0.00     0.089 C 
ATOM     30  C   UNL     1       4.262  -5.506  13.087  1.00  0.00     0.025 C 
ATOM     31  C   UNL     1       3.696  -4.394  12.236  1.00  0.00     0.017 C 
BRANCH  28  32
ATOM     32  C   UNL     1       3.087  -5.506  15.345  1.00  0.00     0.197 C 
BRANCH  32  33
ATOM     33  O   UNL     1       2.822  -4.323  15.578  1.00  0.00    -0.377 OA
ATOM     34  H   UNL     1       2.495  -4.236  16.508  1.00  0.00     0.212 HD
ENDBRANCH  32  33
BRANCH  32  35
ATOM     35  N   UNL     1       3.464  -6.358  16.285  1.00  0.00    -0.305 NA
ATOM     36  H   UNL     1       3.770  -5.837  17.118  1.00  0.00     0.121 HD
ATOM     37  H   UNL     1       2.673  -6.969  16.533  1.00  0.00     0.121 HD
ENDBRANCH  32  35
ENDBRANCH  28  32
ENDBRANCH  24  27
ENDBRANCH   1  24
TORSDOF 10
ENDMDL
MODEL 18
REMARK VINA RESULT:    -7.396      1.798      2.752
REMARK INTER + INTRA:         -12.249
REMARK INTER:                 -10.767
REMARK INTRA:                  -1.482
REMARK UNBOUND:                -1.179
REMARK SMILES C[C@H]1N[C@@H](N[C@@H](O)N2CCC[C@H]2[C@@H](N)O)S[C@@H]1[C@H]1CCN[C@H](C(C)(C)C(F)(F)F)C1
REMARK SMILES IDX 5 1 4 3 2 4 17 5 3 6 16 7 1 8 18 10 19 11 30 12 20 13 22 14
REMARK SMILES IDX 21 15 23 17 24 18 25 19 26 20 27 21 28 22 29 23 6 24 7 25
REMARK SMILES IDX 8 27 12 28 9 29 11 30 10 31 13 32 15 33 14 35
REMARK H PARENT 5 2 3 9 21 16 7 26 15 34 14 36 14 37
ROOT
ATOM      1  N   UNL     1       0.222  -6.491  15.212  1.00  0.00    -0.255 NA
ATOM      2  H   UNL     1      -0.186  -5.709  15.744  1.00  0.00     0.129 HD
ENDROOT
BRANCH   1   3
ATOM      3  C   UNL     1      -0.414  -7.627  15.674  1.00  0.00     0.185 C 
ATOM      4  C   UNL     1      -1.033  -9.751  15.652  1.00  0.00     0.066 C 
ATOM      5  C   UNL     1      -1.644  -9.385  16.847  1.00  0.00     0.069 C 
ATOM      6  N   UNL     1      -0.337  -8.749  15.006  1.00  0.00    -0.290 NA
ATOM      7  S   UNL     1      -1.343  -7.687  17.130  1.00  0.00    -0.122 SA
ATOM      8  C   UNL     1      -1.051 -11.113  15.039  1.00  0.00     0.025 C 
ATOM      9  H   UNL     1       0.651  -9.025  14.921  1.00  0.00     0.125 HD
BRANCH   5  10
ATOM     10  C   UNL     1      -2.468 -10.094  17.852  1.00  0.00     0.006 C 
ATOM     11  C   UNL     1      -3.435 -11.019  17.473  1.00  0.00     0.020 C 
ATOM     12  C   UNL     1      -2.260  -9.859  19.207  1.00  0.00     0.024 C 
ATOM     13  C   UNL     1      -4.182 -11.632  18.455  1.00  0.00     0.081 C 
ATOM     14  C   UNL     1      -3.058 -10.547  20.133  1.00  0.00     0.068 C 
ATOM     15  N   UNL     1      -4.018 -11.406  19.766  1.00  0.00    -0.313 NA
ATOM     16  H   UNL     1      -4.911 -11.044  20.130  1.00  0.00     0.122 HD
BRANCH  14  17
ATOM     17  C   UNL     1      -2.836 -10.385  21.656  1.00  0.00     0.076 C 
ATOM     18  C   UNL     1      -2.985  -8.917  22.088  1.00  0.00     0.022 C 
ATOM     19  C   UNL     1      -3.838 -11.257  22.434  1.00  0.00     0.022 C 
BRANCH  17  20
ATOM     20  C   UNL     1      -1.328 -10.860  22.058  1.00  0.00     0.395 C 
ATOM     21  F   UNL     1      -0.458  -9.869  21.863  1.00  0.00    -0.170 F 
ATOM     22  F   UNL     1      -1.220 -11.226  23.330  1.00  0.00    -0.170 F 
ATOM     23  F   UNL     1      -0.924 -11.897  21.333  1.00  0.00    -0.170 F 
ENDBRANCH  17  20
ENDBRANCH  14  17
ENDBRANCH   5  10
ENDBRANCH   1   3
BRANCH   1  24
ATOM     24  C   UNL     1       1.610  -6.289  15.248  1.00  0.00     0.261 C 
BRANCH  24  25
ATOM     25  O   UNL     1       2.289  -6.662  16.193  1.00  0.00    -0.365 OA
ATOM     26  H   UNL     1       2.918  -5.942  16.452  1.00  0.00     0.214 HD
ENDBRANCH  24  25
BRANCH  24  27
ATOM     27  N   UNL     1       2.187  -5.648  14.168  1.00  0.00    -0.259 NA
ATOM     28  C   UNL     1       1.624  -5.829  12.820  1.00  0.00     0.104 C 
ATOM     29  C   UNL     1       3.350  -4.747  14.176  1.00  0.00     0.089 C 
ATOM     30  C   UNL     1       2.467  -4.889  11.943  1.00  0.00     0.025 C 
ATOM     31  C   UNL     1       3.745  -4.664  12.718  1.00  0.00     0.017 C 
BRANCH  28  32
ATOM     32  C   UNL     1       1.672  -7.277  12.326  1.00  0.00     0.197 C 
BRANCH  32  33
ATOM     33  O   UNL     1       2.740  -7.773  11.958  1.00  0.00    -0.377 OA
ATOM     34  H   UNL     1       3.309  -7.070  11.556  1.00  0.00     0.212 HD
ENDBRANCH  32  33
BRANCH  32  35
ATOM     35  N   UNL     1       0.516  -7.917  12.252  1.00  0.00    -0.305 NA
ATOM     36  H   UNL     1       0.007  -7.610  11.412  1.00  0.00     0.121 HD
ATOM     37  H   UNL     1       0.688  -8.931  12.199  1.00  0.00     0.121 HD
ENDBRANCH  32  35
ENDBRANCH  28  32
ENDBRANCH  24  27
ENDBRANCH   1  24
TORSDOF 10
ENDMDL
MODEL 19
REMARK VINA RESULT:    -7.319      4.140      6.662
REMARK INTER + INTRA:         -12.135
REMARK INTER:                 -10.691
REMARK INTRA:                  -1.443
REMARK UNBOUND:                -1.179
REMARK SMILES C[C@H]1N[C@@H](N[C@@H](O)N2CCC[C@H]2[C@@H](N)O)S[C@@H]1[C@H]1CCN[C@H](C(C)(C)C(F)(F)F)C1
REMARK SMILES IDX 5 1 4 3 2 4 17 5 3 6 16 7 1 8 18 10 19 11 30 12 20 13 22 14
REMARK SMILES IDX 21 15 23 17 24 18 25 19 26 20 27 21 28 22 29 23 6 24 7 25
REMARK SMILES IDX 8 27 12 28 9 29 11 30 10 31 13 32 15 33 14 35
REMARK H PARENT 5 2 3 9 21 16 7 26 15 34 14 36 14 37
ROOT
ATOM      1  N   UNL     1      -0.349  -3.864  17.419  1.00  0.00    -0.255 NA
ATOM      2  H   UNL     1      -0.671  -4.176  18.347  1.00  0.00     0.129 HD
ENDROOT
BRANCH   1   3
ATOM      3  C   UNL     1      -0.187  -5.016  16.675  1.00  0.00     0.185 C 
ATOM      4  C   UNL     1       0.786  -6.360  15.211  1.00  0.00     0.066 C 
ATOM      5  C   UNL     1      -0.248  -7.208  15.593  1.00  0.00     0.069 C 
ATOM      6  N   UNL     1       0.811  -5.129  15.836  1.00  0.00    -0.290 NA
ATOM      7  S   UNL     1      -1.242  -6.381  16.768  1.00  0.00    -0.122 SA
ATOM      8  C   UNL     1       1.859  -6.676  14.220  1.00  0.00     0.025 C 
ATOM      9  H   UNL     1       1.698  -5.029  16.349  1.00  0.00     0.125 HD
BRANCH   5  10
ATOM     10  C   UNL     1      -0.664  -8.576  15.209  1.00  0.00     0.006 C 
ATOM     11  C   UNL     1      -0.331  -9.114  13.971  1.00  0.00     0.020 C 
ATOM     12  C   UNL     1      -1.379  -9.359  16.110  1.00  0.00     0.024 C 
ATOM     13  C   UNL     1      -0.764 -10.385  13.666  1.00  0.00     0.081 C 
ATOM     14  C   UNL     1      -1.759 -10.650  15.715  1.00  0.00     0.068 C 
ATOM     15  N   UNL     1      -1.475 -11.152  14.506  1.00  0.00    -0.313 NA
ATOM     16  H   UNL     1      -2.370 -11.368  14.043  1.00  0.00     0.122 HD
BRANCH  14  17
ATOM     17  C   UNL     1      -2.497 -11.601  16.689  1.00  0.00     0.076 C 
ATOM     18  C   UNL     1      -1.663 -12.859  16.977  1.00  0.00     0.022 C 
ATOM     19  C   UNL     1      -2.809 -10.872  18.008  1.00  0.00     0.022 C 
BRANCH  17  20
ATOM     20  C   UNL     1      -3.908 -12.092  16.032  1.00  0.00     0.395 C 
ATOM     21  F   UNL     1      -3.734 -13.214  15.335  1.00  0.00    -0.170 F 
ATOM     22  F   UNL     1      -4.845 -12.340  16.940  1.00  0.00    -0.170 F 
ATOM     23  F   UNL     1      -4.415 -11.182  15.207  1.00  0.00    -0.170 F 
ENDBRANCH  17  20
ENDBRANCH  14  17
ENDBRANCH   5  10
ENDBRANCH   1   3
BRANCH   1  24
ATOM     24  C   UNL     1       0.668  -2.929  17.667  1.00  0.00     0.261 C 
BRANCH  24  25
ATOM     25  O   UNL     1       0.649  -1.813  17.170  1.00  0.00    -0.365 OA
ATOM     26  H   UNL     1       1.308  -1.769  16.432  1.00  0.00     0.214 HD
ENDBRANCH  24  25
BRANCH  24  27
ATOM     27  N   UNL     1       1.700  -3.319  18.499  1.00  0.00    -0.259 NA
ATOM     28  C   UNL     1       3.097  -3.119  18.081  1.00  0.00     0.104 C 
ATOM     29  C   UNL     1       1.594  -3.935  19.831  1.00  0.00     0.089 C 
ATOM     30  C   UNL     1       3.912  -3.576  19.301  1.00  0.00     0.025 C 
ATOM     31  C   UNL     1       2.984  -4.475  20.083  1.00  0.00     0.017 C 
BRANCH  28  32
ATOM     32  C   UNL     1       3.472  -3.890  16.813  1.00  0.00     0.197 C 
BRANCH  32  33
ATOM     33  O   UNL     1       3.952  -5.024  16.894  1.00  0.00    -0.377 OA
ATOM     34  H   UNL     1       4.705  -5.109  16.257  1.00  0.00     0.212 HD
ENDBRANCH  32  33
BRANCH  32  35
ATOM     35  N   UNL     1       3.323  -3.251  15.664  1.00  0.00    -0.305 NA
ATOM     36  H   UNL     1       4.011  -3.603  14.984  1.00  0.00     0.121 HD
ATOM     37  H   UNL     1       2.371  -3.409  15.304  1.00  0.00     0.121 HD
ENDBRANCH  32  35
ENDBRANCH  28  32
ENDBRANCH  24  27
ENDBRANCH   1  24
TORSDOF 10
ENDMDL
MODEL 20
REMARK VINA RESULT:    -7.287      3.078      4.611
REMARK INTER + INTRA:         -12.087
REMARK INTER:                 -10.828
REMARK INTRA:                  -1.259
REMARK UNBOUND:                -1.179
REMARK SMILES C[C@H]1N[C@@H](N[C@@H](O)N2CCC[C@H]2[C@@H](N)O)S[C@@H]1[C@H]1CCN[C@H](C(C)(C)C(F)(F)F)C1
REMARK SMILES IDX 5 1 4 3 2 4 17 5 3 6 16 7 1 8 18 10 19 11 30 12 20 13 22 14
REMARK SMILES IDX 21 15 23 17 24 18 25 19 26 20 27 21 28 22 29 23 6 24 7 25
REMARK SMILES IDX 8 27 12 28 9 29 11 30 10 31 13 32 15 33 14 35
REMARK H PARENT 5 2 3 9 21 16 7 26 15 34 14 36 14 37
ROOT
ATOM      1  N   UNL     1      -0.307  -5.529  15.786  1.00  0.00    -0.255 NA
ATOM      2  H   UNL     1      -1.154  -4.943  15.750  1.00  0.00     0.129 HD
ENDROOT
BRANCH   1   3
ATOM      3  C   UNL     1      -0.753  -6.812  16.038  1.00  0.00     0.185 C 
ATOM      4  C   UNL     1      -0.862  -9.005  15.772  1.00  0.00     0.066 C 
ATOM      5  C   UNL     1      -1.770  -8.894  16.820  1.00  0.00     0.069 C 
ATOM      6  N   UNL     1      -0.292  -7.823  15.347  1.00  0.00    -0.290 NA
ATOM      7  S   UNL     1      -1.921  -7.206  17.248  1.00  0.00    -0.122 SA
ATOM      8  C   UNL     1      -0.449 -10.276  15.102  1.00  0.00     0.025 C 
ATOM      9  H   UNL     1       0.729  -7.877  15.468  1.00  0.00     0.125 HD
BRANCH   5  10
ATOM     10  C   UNL     1      -2.601  -9.854  17.581  1.00  0.00     0.006 C 
ATOM     11  C   UNL     1      -3.234 -10.920  16.953  1.00  0.00     0.020 C 
ATOM     12  C   UNL     1      -2.735  -9.712  18.958  1.00  0.00     0.024 C 
ATOM     13  C   UNL     1      -4.009 -11.768  17.713  1.00  0.00     0.081 C 
ATOM     14  C   UNL     1      -3.530 -10.638  19.649  1.00  0.00     0.068 C 
ATOM     15  N   UNL     1      -4.174 -11.640  19.037  1.00  0.00    -0.313 NA
ATOM     16  H   UNL     1      -5.181 -11.511  19.211  1.00  0.00     0.122 HD
BRANCH  14  17
ATOM     17  C   UNL     1      -3.669 -10.581  21.190  1.00  0.00     0.076 C 
ATOM     18  C   UNL     1      -4.172  -9.204  21.653  1.00  0.00     0.022 C 
ATOM     19  C   UNL     1      -4.635 -11.676  21.676  1.00  0.00     0.022 C 
BRANCH  17  20
ATOM     20  C   UNL     1      -2.219 -10.831  21.895  1.00  0.00     0.395 C 
ATOM     21  F   UNL     1      -1.520 -11.740  21.216  1.00  0.00    -0.170 F 
ATOM     22  F   UNL     1      -1.474  -9.733  21.954  1.00  0.00    -0.170 F 
ATOM     23  F   UNL     1      -2.342 -11.271  23.142  1.00  0.00    -0.170 F 
ENDBRANCH  17  20
ENDBRANCH  14  17
ENDBRANCH   5  10
ENDBRANCH   1   3
BRANCH   1  24
ATOM     24  C   UNL     1       0.601  -4.831  16.596  1.00  0.00     0.261 C 
BRANCH  24  25
ATOM     25  O   UNL     1       1.727  -4.554  16.210  1.00  0.00    -0.365 OA
ATOM     26  H   UNL     1       1.671  -4.100  15.331  1.00  0.00     0.214 HD
ENDBRANCH  24  25
BRANCH  24  27
ATOM     27  N   UNL     1       0.174  -4.464  17.858  1.00  0.00    -0.259 NA
ATOM     28  C   UNL     1      -0.988  -3.572  18.011  1.00  0.00     0.104 C 
ATOM     29  C   UNL     1       0.744  -4.872  19.152  1.00  0.00     0.089 C 
ATOM     30  C   UNL     1      -1.194  -3.498  19.532  1.00  0.00     0.025 C 
ATOM     31  C   UNL     1       0.136  -3.893  20.132  1.00  0.00     0.017 C 
BRANCH  28  32
ATOM     32  C   UNL     1      -0.783  -2.190  17.388  1.00  0.00     0.197 C 
BRANCH  32  33
ATOM     33  O   UNL     1       0.356  -1.774  17.158  1.00  0.00    -0.377 OA
ATOM     34  H   UNL     1       0.942  -1.976  17.929  1.00  0.00     0.212 HD
ENDBRANCH  32  33
BRANCH  32  35
ATOM     35  N   UNL     1      -1.870  -1.463  17.187  1.00  0.00    -0.305 NA
ATOM     36  H   UNL     1      -2.090  -0.931  18.041  1.00  0.00     0.121 HD
ATOM     37  H   UNL     1      -1.707  -0.809  16.408  1.00  0.00     0.121 HD
ENDBRANCH  32  35
ENDBRANCH  28  32
ENDBRANCH  24  27
ENDBRANCH   1  24
TORSDOF 10
ENDMDL
