MODEL 1
REMARK VINA RESULT:    -9.605      0.000      0.000
REMARK INTER + INTRA:         -10.899
REMARK INTER:                 -11.290
REMARK INTRA:                   0.391
REMARK UNBOUND:                 0.391
REMARK SMILES CN1C(N)=N[C@](C)(c2cc(NC(=O)c3ccc(F)cn3)ccc2F)CS1(=O)=O
REMARK SMILES IDX 8 1 9 2 10 3 21 4 22 5 23 6 24 7 6 8 25 9 5 10 26 11 3 12
REMARK SMILES IDX 27 13 2 14 28 15 4 16 7 17 1 18 11 21 12 22 13 23 14 25
REMARK SMILES IDX 20 26 15 27 19 28 16 29 17 30 18 31
REMARK H PARENT 4 19 4 20 11 24
ROOT
ATOM      1  C   UNL     1      15.287   4.501  20.455  1.00  0.00     0.018 A 
ATOM      2  C   UNL     1      16.184   4.319  21.506  1.00  0.00     0.035 A 
ATOM      3  C   UNL     1      16.589   5.355  22.317  1.00  0.00     0.042 A 
ATOM      4  C   UNL     1      16.123   6.645  22.095  1.00  0.00     0.029 A 
ATOM      5  C   UNL     1      15.230   6.844  21.057  1.00  0.00     0.042 A 
ATOM      6  C   UNL     1      14.808   5.789  20.272  1.00  0.00     0.129 A 
ATOM      7  F   UNL     1      13.908   6.006  19.279  1.00  0.00    -0.207 F 
ENDROOT
BRANCH   1   8
ATOM      8  C   UNL     1      14.857   3.335  19.578  1.00  0.00     0.105 C 
ATOM      9  C   UNL     1      15.964   2.377  19.198  1.00  0.00     0.195 C 
ATOM     10  N   UNL     1      14.147   3.782  18.381  1.00  0.00    -0.240 NA
ATOM     11  S   UNL     1      17.187   3.194  18.204  1.00  0.00     0.239 S 
ATOM     12  C   UNL     1      14.780   4.200  17.329  1.00  0.00     0.205 C 
ATOM     13  O   UNL     1      17.791   2.172  17.368  1.00  0.00    -0.206 OA
ATOM     14  N   UNL     1      16.185   4.157  17.188  1.00  0.00    -0.243 N 
ATOM     15  O   UNL     1      17.928   4.153  18.962  1.00  0.00    -0.206 OA
ATOM     16  N   UNL     1      14.128   4.703  16.235  1.00  0.00    -0.369 N 
ATOM     17  C   UNL     1      13.795   2.522  20.324  1.00  0.00     0.044 C 
ATOM     18  C   UNL     1      16.897   4.749  16.039  1.00  0.00     0.167 C 
ATOM     19  H   UNL     1      13.146   4.773  16.237  1.00  0.00     0.159 HD
ATOM     20  H   UNL     1      14.640   4.994  15.446  1.00  0.00     0.159 HD
ENDBRANCH   1   8
BRANCH   3  21
ATOM     21  N   UNL     1      17.496   5.037  23.336  1.00  0.00    -0.321 N 
ATOM     22  C   UNL     1      18.860   5.266  23.371  1.00  0.00     0.274 C 
ATOM     23  O   UNL     1      19.529   5.680  22.434  1.00  0.00    -0.267 OA
ATOM     24  H   UNL     1      17.113   4.595  24.129  1.00  0.00     0.170 HD
BRANCH  22  25
ATOM     25  C   UNL     1      19.512   5.007  24.678  1.00  0.00     0.128 A 
ATOM     26  N   UNL     1      20.241   3.890  24.766  1.00  0.00    -0.248 NA
ATOM     27  C   UNL     1      19.355   5.906  25.719  1.00  0.00     0.037 A 
ATOM     28  C   UNL     1      20.838   3.632  25.941  1.00  0.00     0.151 A 
ATOM     29  C   UNL     1      19.986   5.616  26.915  1.00  0.00     0.043 A 
ATOM     30  C   UNL     1      20.736   4.461  27.035  1.00  0.00     0.141 A 
ATOM     31  F   UNL     1      21.375   4.142  28.174  1.00  0.00    -0.205 F 
ENDBRANCH  22  25
ENDBRANCH   3  21
TORSDOF 3
ENDMDL
MODEL 2
REMARK VINA RESULT:    -9.369      5.857      9.744
REMARK INTER + INTRA:         -10.620
REMARK INTER:                 -10.227
REMARK INTRA:                  -0.394
REMARK UNBOUND:                 0.391
REMARK SMILES CN1C(N)=N[C@](C)(c2cc(NC(=O)c3ccc(F)cn3)ccc2F)CS1(=O)=O
REMARK SMILES IDX 8 1 9 2 10 3 21 4 22 5 23 6 24 7 6 8 25 9 5 10 26 11 3 12
REMARK SMILES IDX 27 13 2 14 28 15 4 16 7 17 1 18 11 21 12 22 13 23 14 25
REMARK SMILES IDX 20 26 15 27 19 28 16 29 17 30 18 31
REMARK H PARENT 4 19 4 20 11 24
ROOT
ATOM      1  C   UNL     1      18.787  11.342  25.705  1.00  0.00     0.018 A 
ATOM      2  C   UNL     1      18.483  10.460  24.669  1.00  0.00     0.035 A 
ATOM      3  C   UNL     1      17.343  10.585  23.907  1.00  0.00     0.042 A 
ATOM      4  C   UNL     1      16.432  11.600  24.166  1.00  0.00     0.029 A 
ATOM      5  C   UNL     1      16.719  12.487  25.189  1.00  0.00     0.042 A 
ATOM      6  C   UNL     1      17.882  12.369  25.924  1.00  0.00     0.129 A 
ATOM      7  F   UNL     1      18.155  13.269  26.903  1.00  0.00    -0.207 F 
ENDROOT
BRANCH   1   8
ATOM      8  C   UNL     1      20.056  11.179  26.528  1.00  0.00     0.105 C 
ATOM      9  C   UNL     1      20.937  12.406  26.596  1.00  0.00     0.195 C 
ATOM     10  N   UNL     1      20.841  10.021  26.102  1.00  0.00    -0.240 NA
ATOM     11  S   UNL     1      21.556  12.825  24.985  1.00  0.00     0.239 S 
ATOM     12  C   UNL     1      21.638  10.076  25.080  1.00  0.00     0.205 C 
ATOM     13  O   UNL     1      22.821  13.507  25.192  1.00  0.00    -0.206 OA
ATOM     14  N   UNL     1      21.915  11.261  24.363  1.00  0.00    -0.243 N 
ATOM     15  O   UNL     1      20.515  13.303  24.129  1.00  0.00    -0.206 OA
ATOM     16  N   UNL     1      22.311   8.977  24.618  1.00  0.00    -0.369 N 
ATOM     17  C   UNL     1      19.671  10.823  27.966  1.00  0.00     0.044 C 
ATOM     18  C   UNL     1      22.725  11.284  23.129  1.00  0.00     0.167 C 
ATOM     19  H   UNL     1      22.183   8.103  25.054  1.00  0.00     0.159 HD
ATOM     20  H   UNL     1      22.922   9.060  23.850  1.00  0.00     0.159 HD
ENDBRANCH   1   8
BRANCH   3  21
ATOM     21  N   UNL     1      17.155   9.631  22.899  1.00  0.00    -0.321 N 
ATOM     22  C   UNL     1      16.403   8.471  22.946  1.00  0.00     0.274 C 
ATOM     23  O   UNL     1      15.869   8.018  23.950  1.00  0.00    -0.267 OA
ATOM     24  H   UNL     1      17.617   9.809  22.048  1.00  0.00     0.170 HD
BRANCH  22  25
ATOM     25  C   UNL     1      16.228   7.776  21.647  1.00  0.00     0.128 A 
ATOM     26  N   UNL     1      17.338   7.573  20.930  1.00  0.00    -0.248 NA
ATOM     27  C   UNL     1      14.968   7.368  21.245  1.00  0.00     0.037 A 
ATOM     28  C   UNL     1      17.205   6.948  19.748  1.00  0.00     0.151 A 
ATOM     29  C   UNL     1      14.864   6.723  20.026  1.00  0.00     0.043 A 
ATOM     30  C   UNL     1      15.994   6.511  19.260  1.00  0.00     0.141 A 
ATOM     31  F   UNL     1      15.943   5.881  18.074  1.00  0.00    -0.205 F 
ENDBRANCH  22  25
ENDBRANCH   3  21
TORSDOF 3
ENDMDL
MODEL 3
REMARK VINA RESULT:    -9.006      9.959     11.780
REMARK INTER + INTRA:         -10.194
REMARK INTER:                  -9.863
REMARK INTRA:                  -0.331
REMARK UNBOUND:                 0.391
REMARK SMILES CN1C(N)=N[C@](C)(c2cc(NC(=O)c3ccc(F)cn3)ccc2F)CS1(=O)=O
REMARK SMILES IDX 8 1 9 2 10 3 21 4 22 5 23 6 24 7 6 8 25 9 5 10 26 11 3 12
REMARK SMILES IDX 27 13 2 14 28 15 4 16 7 17 1 18 11 21 12 22 13 23 14 25
REMARK SMILES IDX 20 26 15 27 19 28 16 29 17 30 18 31
REMARK H PARENT 4 19 4 20 11 24
ROOT
ATOM      1  C   UNL     1      24.236  11.793  20.451  1.00  0.00     0.018 A 
ATOM      2  C   UNL     1      24.047  12.236  21.759  1.00  0.00     0.035 A 
ATOM      3  C   UNL     1      23.445  11.457  22.721  1.00  0.00     0.042 A 
ATOM      4  C   UNL     1      22.978  10.187  22.406  1.00  0.00     0.029 A 
ATOM      5  C   UNL     1      23.159   9.730  21.113  1.00  0.00     0.042 A 
ATOM      6  C   UNL     1      23.794  10.510  20.167  1.00  0.00     0.129 A 
ATOM      7  F   UNL     1      23.986  10.026  18.913  1.00  0.00    -0.207 F 
ENDROOT
BRANCH   1   8
ATOM      8  C   UNL     1      24.908  12.677  19.412  1.00  0.00     0.105 C 
ATOM      9  C   UNL     1      26.143  12.085  18.769  1.00  0.00     0.195 C 
ATOM     10  N   UNL     1      25.203  14.010  19.933  1.00  0.00    -0.240 NA
ATOM     11  S   UNL     1      27.423  11.844  19.976  1.00  0.00     0.239 S 
ATOM     12  C   UNL     1      26.256  14.242  20.655  1.00  0.00     0.205 C 
ATOM     13  O   UNL     1      28.685  11.930  19.263  1.00  0.00    -0.206 OA
ATOM     14  N   UNL     1      27.263  13.284  20.906  1.00  0.00    -0.243 N 
ATOM     15  O   UNL     1      27.089  10.803  20.897  1.00  0.00    -0.206 OA
ATOM     16  N   UNL     1      26.498  15.464  21.223  1.00  0.00    -0.369 N 
ATOM     17  C   UNL     1      23.910  12.962  18.286  1.00  0.00     0.044 C 
ATOM     18  C   UNL     1      28.390  13.524  21.829  1.00  0.00     0.167 C 
ATOM     19  H   UNL     1      25.853  16.198  21.104  1.00  0.00     0.159 HD
ATOM     20  H   UNL     1      27.317  15.609  21.750  1.00  0.00     0.159 HD
ENDBRANCH   1   8
BRANCH   3  21
ATOM     21  N   UNL     1      23.315  12.023  23.996  1.00  0.00    -0.321 N 
ATOM     22  C   UNL     1      22.361  12.920  24.442  1.00  0.00     0.274 C 
ATOM     23  O   UNL     1      21.530  13.474  23.734  1.00  0.00    -0.267 OA
ATOM     24  H   UNL     1      23.988  11.746  24.659  1.00  0.00     0.170 HD
BRANCH  22  25
ATOM     25  C   UNL     1      22.361  13.170  25.904  1.00  0.00     0.128 A 
ATOM     26  N   UNL     1      23.391  13.875  26.384  1.00  0.00    -0.248 NA
ATOM     27  C   UNL     1      21.326  12.691  26.687  1.00  0.00     0.037 A 
ATOM     28  C   UNL     1      23.416  14.111  27.706  1.00  0.00     0.151 A 
ATOM     29  C   UNL     1      21.376  12.956  28.045  1.00  0.00     0.043 A 
ATOM     30  C   UNL     1      22.436  13.671  28.567  1.00  0.00     0.141 A 
ATOM     31  F   UNL     1      22.523  13.960  29.877  1.00  0.00    -0.205 F 
ENDBRANCH  22  25
ENDBRANCH   3  21
TORSDOF 3
ENDMDL
MODEL 4
REMARK VINA RESULT:    -8.684      7.395     10.243
REMARK INTER + INTRA:          -9.816
REMARK INTER:                  -9.640
REMARK INTRA:                  -0.176
REMARK UNBOUND:                 0.391
REMARK SMILES CN1C(N)=N[C@](C)(c2cc(NC(=O)c3ccc(F)cn3)ccc2F)CS1(=O)=O
REMARK SMILES IDX 8 1 9 2 10 3 21 4 22 5 23 6 24 7 6 8 25 9 5 10 26 11 3 12
REMARK SMILES IDX 27 13 2 14 28 15 4 16 7 17 1 18 11 21 12 22 13 23 14 25
REMARK SMILES IDX 20 26 15 27 19 28 16 29 17 30 18 31
REMARK H PARENT 4 19 4 20 11 24
ROOT
ATOM      1  C   UNL     1      19.269  11.722  25.960  1.00  0.00     0.018 A 
ATOM      2  C   UNL     1      19.459  10.372  26.253  1.00  0.00     0.035 A 
ATOM      3  C   UNL     1      20.396   9.602  25.603  1.00  0.00     0.042 A 
ATOM      4  C   UNL     1      21.184  10.152  24.599  1.00  0.00     0.029 A 
ATOM      5  C   UNL     1      21.012  11.491  24.297  1.00  0.00     0.042 A 
ATOM      6  C   UNL     1      20.089  12.259  24.979  1.00  0.00     0.129 A 
ATOM      7  F   UNL     1      19.960  13.578  24.684  1.00  0.00    -0.207 F 
ENDROOT
BRANCH   1   8
ATOM      8  C   UNL     1      18.226  12.547  26.698  1.00  0.00     0.105 C 
ATOM      9  C   UNL     1      18.665  13.945  27.075  1.00  0.00     0.195 C 
ATOM     10  N   UNL     1      17.707  11.850  27.873  1.00  0.00    -0.240 NA
ATOM     11  S   UNL     1      20.017  13.890  28.223  1.00  0.00     0.239 S 
ATOM     12  C   UNL     1      18.347  11.846  29.001  1.00  0.00     0.205 C 
ATOM     13  O   UNL     1      19.942  15.107  29.010  1.00  0.00    -0.206 OA
ATOM     14  N   UNL     1      19.521  12.593  29.242  1.00  0.00    -0.243 N 
ATOM     15  O   UNL     1      21.212  13.403  27.608  1.00  0.00    -0.206 OA
ATOM     16  N   UNL     1      17.916  11.125  30.083  1.00  0.00    -0.369 N 
ATOM     17  C   UNL     1      16.988  12.690  25.808  1.00  0.00     0.044 C 
ATOM     18  C   UNL     1      20.305  12.482  30.487  1.00  0.00     0.167 C 
ATOM     19  H   UNL     1      17.105  10.572  30.014  1.00  0.00     0.159 HD
ATOM     20  H   UNL     1      18.418  11.160  30.930  1.00  0.00     0.159 HD
ENDBRANCH   1   8
BRANCH   3  21
ATOM     21  N   UNL     1      20.484   8.259  25.991  1.00  0.00    -0.321 N 
ATOM     22  C   UNL     1      19.710   7.193  25.569  1.00  0.00     0.274 C 
ATOM     23  O   UNL     1      18.714   7.282  24.863  1.00  0.00    -0.267 OA
ATOM     24  H   UNL     1      21.186   8.047  26.648  1.00  0.00     0.170 HD
BRANCH  22  25
ATOM     25  C   UNL     1      20.184   5.856  26.002  1.00  0.00     0.128 A 
ATOM     26  N   UNL     1      20.115   5.598  27.312  1.00  0.00    -0.248 NA
ATOM     27  C   UNL     1      20.653   4.952  25.064  1.00  0.00     0.037 A 
ATOM     28  C   UNL     1      20.543   4.395  27.729  1.00  0.00     0.151 A 
ATOM     29  C   UNL     1      21.080   3.719  25.524  1.00  0.00     0.043 A 
ATOM     30  C   UNL     1      21.031   3.433  26.874  1.00  0.00     0.141 A 
ATOM     31  F   UNL     1      21.427   2.246  27.365  1.00  0.00    -0.205 F 
ENDBRANCH  22  25
ENDBRANCH   3  21
TORSDOF 3
ENDMDL
MODEL 5
REMARK VINA RESULT:    -8.684      3.143      8.245
REMARK INTER + INTRA:          -9.816
REMARK INTER:                 -10.475
REMARK INTRA:                   0.659
REMARK UNBOUND:                 0.391
REMARK SMILES CN1C(N)=N[C@](C)(c2cc(NC(=O)c3ccc(F)cn3)ccc2F)CS1(=O)=O
REMARK SMILES IDX 8 1 9 2 10 3 21 4 22 5 23 6 24 7 6 8 25 9 5 10 26 11 3 12
REMARK SMILES IDX 27 13 2 14 28 15 4 16 7 17 1 18 11 21 12 22 13 23 14 25
REMARK SMILES IDX 20 26 15 27 19 28 16 29 17 30 18 31
REMARK H PARENT 4 19 4 20 11 24
ROOT
ATOM      1  C   UNL     1      18.753   7.430  22.428  1.00  0.00     0.018 A 
ATOM      2  C   UNL     1      18.063   6.665  21.489  1.00  0.00     0.035 A 
ATOM      3  C   UNL     1      16.756   6.924  21.145  1.00  0.00     0.042 A 
ATOM      4  C   UNL     1      16.062   7.964  21.751  1.00  0.00     0.029 A 
ATOM      5  C   UNL     1      16.732   8.737  22.683  1.00  0.00     0.042 A 
ATOM      6  C   UNL     1      18.053   8.485  22.995  1.00  0.00     0.129 A 
ATOM      7  F   UNL     1      18.697   9.276  23.891  1.00  0.00    -0.207 F 
ENDROOT
BRANCH   1   8
ATOM      8  C   UNL     1      20.198   7.121  22.785  1.00  0.00     0.105 C 
ATOM      9  C   UNL     1      20.552   5.650  22.805  1.00  0.00     0.195 C 
ATOM     10  N   UNL     1      20.601   7.751  24.041  1.00  0.00    -0.240 NA
ATOM     11  S   UNL     1      19.638   4.803  24.069  1.00  0.00     0.239 S 
ATOM     12  C   UNL     1      20.316   7.223  25.191  1.00  0.00     0.205 C 
ATOM     13  O   UNL     1      20.446   3.666  24.473  1.00  0.00    -0.206 OA
ATOM     14  N   UNL     1      19.708   5.957  25.345  1.00  0.00    -0.243 N 
ATOM     15  O   UNL     1      18.246   4.727  23.753  1.00  0.00    -0.206 OA
ATOM     16  N   UNL     1      20.609   7.846  26.374  1.00  0.00    -0.369 N 
ATOM     17  C   UNL     1      21.116   7.788  21.757  1.00  0.00     0.044 C 
ATOM     18  C   UNL     1      19.278   5.424  26.653  1.00  0.00     0.167 C 
ATOM     19  H   UNL     1      21.034   8.734  26.371  1.00  0.00     0.159 HD
ATOM     20  H   UNL     1      20.394   7.407  27.229  1.00  0.00     0.159 HD
ENDBRANCH   1   8
BRANCH   3  21
ATOM     21  N   UNL     1      16.179   6.077  20.189  1.00  0.00    -0.321 N 
ATOM     22  C   UNL     1      14.860   5.672  20.088  1.00  0.00     0.274 C 
ATOM     23  O   UNL     1      13.989   5.896  20.919  1.00  0.00    -0.267 OA
ATOM     24  H   UNL     1      16.790   5.726  19.502  1.00  0.00     0.170 HD
BRANCH  22  25
ATOM     25  C   UNL     1      14.515   4.943  18.844  1.00  0.00     0.128 A 
ATOM     26  N   UNL     1      14.868   3.654  18.795  1.00  0.00    -0.248 NA
ATOM     27  C   UNL     1      13.854   5.599  17.820  1.00  0.00     0.037 A 
ATOM     28  C   UNL     1      14.569   2.974  17.675  1.00  0.00     0.151 A 
ATOM     29  C   UNL     1      13.555   4.869  16.682  1.00  0.00     0.043 A 
ATOM     30  C   UNL     1      13.920   3.539  16.602  1.00  0.00     0.141 A 
ATOM     31  F   UNL     1      13.643   2.789  15.522  1.00  0.00    -0.205 F 
ENDBRANCH  22  25
ENDBRANCH   3  21
TORSDOF 3
ENDMDL
MODEL 6
REMARK VINA RESULT:    -8.676      4.585      6.043
REMARK INTER + INTRA:          -9.807
REMARK INTER:                  -9.702
REMARK INTRA:                  -0.105
REMARK UNBOUND:                 0.391
REMARK SMILES CN1C(N)=N[C@](C)(c2cc(NC(=O)c3ccc(F)cn3)ccc2F)CS1(=O)=O
REMARK SMILES IDX 8 1 9 2 10 3 21 4 22 5 23 6 24 7 6 8 25 9 5 10 26 11 3 12
REMARK SMILES IDX 27 13 2 14 28 15 4 16 7 17 1 18 11 21 12 22 13 23 14 25
REMARK SMILES IDX 20 26 15 27 19 28 16 29 17 30 18 31
REMARK H PARENT 4 19 4 20 11 24
ROOT
ATOM      1  C   UNL     1      16.603   7.622  21.500  1.00  0.00     0.018 A 
ATOM      2  C   UNL     1      17.446   8.500  22.180  1.00  0.00     0.035 A 
ATOM      3  C   UNL     1      16.970   9.588  22.875  1.00  0.00     0.042 A 
ATOM      4  C   UNL     1      15.608   9.864  22.903  1.00  0.00     0.029 A 
ATOM      5  C   UNL     1      14.756   9.001  22.237  1.00  0.00     0.042 A 
ATOM      6  C   UNL     1      15.245   7.895  21.571  1.00  0.00     0.129 A 
ATOM      7  F   UNL     1      14.385   7.048  20.950  1.00  0.00    -0.207 F 
ENDROOT
BRANCH   1   8
ATOM      8  C   UNL     1      17.159   6.426  20.743  1.00  0.00     0.105 C 
ATOM      9  C   UNL     1      16.582   5.087  21.147  1.00  0.00     0.195 C 
ATOM     10  N   UNL     1      18.620   6.378  20.791  1.00  0.00    -0.240 NA
ATOM     11  S   UNL     1      16.985   4.714  22.835  1.00  0.00     0.239 S 
ATOM     12  C   UNL     1      19.253   5.890  21.813  1.00  0.00     0.205 C 
ATOM     13  O   UNL     1      17.012   3.266  22.943  1.00  0.00    -0.206 OA
ATOM     14  N   UNL     1      18.615   5.262  22.905  1.00  0.00    -0.243 N 
ATOM     15  O   UNL     1      16.295   5.575  23.744  1.00  0.00    -0.206 OA
ATOM     16  N   UNL     1      20.618   5.919  21.908  1.00  0.00    -0.369 N 
ATOM     17  C   UNL     1      16.871   6.608  19.251  1.00  0.00     0.044 C 
ATOM     18  C   UNL     1      19.338   4.824  24.116  1.00  0.00     0.167 C 
ATOM     19  H   UNL     1      21.153   6.337  21.195  1.00  0.00     0.159 HD
ATOM     20  H   UNL     1      21.066   5.523  22.691  1.00  0.00     0.159 HD
ENDBRANCH   1   8
BRANCH   3  21
ATOM     21  N   UNL     1      17.924  10.392  23.512  1.00  0.00    -0.321 N 
ATOM     22  C   UNL     1      17.812  11.063  24.717  1.00  0.00     0.274 C 
ATOM     23  O   UNL     1      16.785  11.165  25.374  1.00  0.00    -0.267 OA
ATOM     24  H   UNL     1      18.783  10.492  23.042  1.00  0.00     0.170 HD
BRANCH  22  25
ATOM     25  C   UNL     1      19.070  11.660  25.228  1.00  0.00     0.128 A 
ATOM     26  N   UNL     1      19.458  11.271  26.447  1.00  0.00    -0.248 NA
ATOM     27  C   UNL     1      19.777  12.558  24.447  1.00  0.00     0.037 A 
ATOM     28  C   UNL     1      20.593  11.801  26.933  1.00  0.00     0.151 A 
ATOM     29  C   UNL     1      20.944  13.082  24.973  1.00  0.00     0.043 A 
ATOM     30  C   UNL     1      21.360  12.705  26.235  1.00  0.00     0.141 A 
ATOM     31  F   UNL     1      22.492  13.180  26.783  1.00  0.00    -0.205 F 
ENDBRANCH  22  25
ENDBRANCH   3  21
TORSDOF 3
ENDMDL
MODEL 7
REMARK VINA RESULT:    -8.439      9.396     11.260
REMARK INTER + INTRA:          -9.527
REMARK INTER:                  -9.426
REMARK INTRA:                  -0.102
REMARK UNBOUND:                 0.391
REMARK SMILES CN1C(N)=N[C@](C)(c2cc(NC(=O)c3ccc(F)cn3)ccc2F)CS1(=O)=O
REMARK SMILES IDX 8 1 9 2 10 3 21 4 22 5 23 6 24 7 6 8 25 9 5 10 26 11 3 12
REMARK SMILES IDX 27 13 2 14 28 15 4 16 7 17 1 18 11 21 12 22 13 23 14 25
REMARK SMILES IDX 20 26 15 27 19 28 16 29 17 30 18 31
REMARK H PARENT 4 19 4 20 11 24
ROOT
ATOM      1  C   UNL     1      24.178  11.396  20.615  1.00  0.00     0.018 A 
ATOM      2  C   UNL     1      23.441  11.392  21.798  1.00  0.00     0.035 A 
ATOM      3  C   UNL     1      23.060  10.227  22.425  1.00  0.00     0.042 A 
ATOM      4  C   UNL     1      23.387   8.993  21.875  1.00  0.00     0.029 A 
ATOM      5  C   UNL     1      24.121   8.978  20.702  1.00  0.00     0.042 A 
ATOM      6  C   UNL     1      24.523  10.155  20.102  1.00  0.00     0.129 A 
ATOM      7  F   UNL     1      25.268  10.113  18.968  1.00  0.00    -0.207 F 
ENDROOT
BRANCH   1   8
ATOM      8  C   UNL     1      24.585  12.701  19.949  1.00  0.00     0.105 C 
ATOM      9  C   UNL     1      26.008  12.741  19.436  1.00  0.00     0.195 C 
ATOM     10  N   UNL     1      24.327  13.858  20.804  1.00  0.00    -0.240 NA
ATOM     11  S   UNL     1      27.162  12.599  20.777  1.00  0.00     0.239 S 
ATOM     12  C   UNL     1      25.149  14.206  21.745  1.00  0.00     0.205 C 
ATOM     13  O   UNL     1      28.373  13.281  20.355  1.00  0.00    -0.206 OA
ATOM     14  N   UNL     1      26.404  13.594  21.960  1.00  0.00    -0.243 N 
ATOM     15  O   UNL     1      27.136  11.294  21.359  1.00  0.00    -0.206 OA
ATOM     16  N   UNL     1      24.877  15.233  22.610  1.00  0.00    -0.369 N 
ATOM     17  C   UNL     1      23.668  12.950  18.748  1.00  0.00     0.044 C 
ATOM     18  C   UNL     1      27.271  13.917  23.110  1.00  0.00     0.167 C 
ATOM     19  H   UNL     1      24.026  15.723  22.540  1.00  0.00     0.159 HD
ATOM     20  H   UNL     1      25.533  15.482  23.301  1.00  0.00     0.159 HD
ENDBRANCH   1   8
BRANCH   3  21
ATOM     21  N   UNL     1      22.320  10.362  23.607  1.00  0.00    -0.321 N 
ATOM     22  C   UNL     1      22.593  11.162  24.702  1.00  0.00     0.274 C 
ATOM     23  O   UNL     1      23.623  11.801  24.868  1.00  0.00    -0.267 OA
ATOM     24  H   UNL     1      21.501   9.819  23.665  1.00  0.00     0.170 HD
BRANCH  22  25
ATOM     25  C   UNL     1      21.508  11.247  25.710  1.00  0.00     0.128 A 
ATOM     26  N   UNL     1      21.883  11.524  26.963  1.00  0.00    -0.248 NA
ATOM     27  C   UNL     1      20.192  11.053  25.327  1.00  0.00     0.037 A 
ATOM     28  C   UNL     1      20.919  11.602  27.894  1.00  0.00     0.151 A 
ATOM     29  C   UNL     1      19.221  11.145  26.308  1.00  0.00     0.043 A 
ATOM     30  C   UNL     1      19.584  11.419  27.612  1.00  0.00     0.141 A 
ATOM     31  F   UNL     1      18.675  11.528  28.596  1.00  0.00    -0.205 F 
ENDBRANCH  22  25
ENDBRANCH   3  21
TORSDOF 3
ENDMDL
MODEL 8
REMARK VINA RESULT:    -8.301      8.814     10.993
REMARK INTER + INTRA:          -9.366
REMARK INTER:                  -9.429
REMARK INTRA:                   0.064
REMARK UNBOUND:                 0.391
REMARK SMILES CN1C(N)=N[C@](C)(c2cc(NC(=O)c3ccc(F)cn3)ccc2F)CS1(=O)=O
REMARK SMILES IDX 8 1 9 2 10 3 21 4 22 5 23 6 24 7 6 8 25 9 5 10 26 11 3 12
REMARK SMILES IDX 27 13 2 14 28 15 4 16 7 17 1 18 11 21 12 22 13 23 14 25
REMARK SMILES IDX 20 26 15 27 19 28 16 29 17 30 18 31
REMARK H PARENT 4 19 4 20 11 24
ROOT
ATOM      1  C   UNL     1      24.917  11.309  19.821  1.00  0.00     0.018 A 
ATOM      2  C   UNL     1      24.120  10.617  20.731  1.00  0.00     0.035 A 
ATOM      3  C   UNL     1      24.256   9.265  20.950  1.00  0.00     0.042 A 
ATOM      4  C   UNL     1      25.197   8.529  20.240  1.00  0.00     0.029 A 
ATOM      5  C   UNL     1      25.999   9.200  19.335  1.00  0.00     0.042 A 
ATOM      6  C   UNL     1      25.873  10.563  19.149  1.00  0.00     0.129 A 
ATOM      7  F   UNL     1      26.693  11.203  18.276  1.00  0.00    -0.207 F 
ENDROOT
BRANCH   1   8
ATOM      8  C   UNL     1      24.745  12.805  19.604  1.00  0.00     0.105 C 
ATOM      9  C   UNL     1      26.020  13.614  19.674  1.00  0.00     0.195 C 
ATOM     10  N   UNL     1      23.738  13.376  20.498  1.00  0.00    -0.240 NA
ATOM     11  S   UNL     1      26.731  13.525  21.298  1.00  0.00     0.239 S 
ATOM     12  C   UNL     1      24.017  13.695  21.724  1.00  0.00     0.205 C 
ATOM     13  O   UNL     1      27.483  14.753  21.489  1.00  0.00    -0.206 OA
ATOM     14  N   UNL     1      25.317  13.637  22.274  1.00  0.00    -0.243 N 
ATOM     15  O   UNL     1      27.240  12.220  21.581  1.00  0.00    -0.206 OA
ATOM     16  N   UNL     1      23.064  14.147  22.597  1.00  0.00    -0.369 N 
ATOM     17  C   UNL     1      24.142  13.036  18.216  1.00  0.00     0.044 C 
ATOM     18  C   UNL     1      25.598  13.883  23.703  1.00  0.00     0.167 C 
ATOM     19  H   UNL     1      22.127  14.223  22.305  1.00  0.00     0.159 HD
ATOM     20  H   UNL     1      23.316  14.397  23.515  1.00  0.00     0.159 HD
ENDBRANCH   1   8
BRANCH   3  21
ATOM     21  N   UNL     1      23.390   8.690  21.889  1.00  0.00    -0.321 N 
ATOM     22  C   UNL     1      22.621   9.327  22.848  1.00  0.00     0.274 C 
ATOM     23  O   UNL     1      22.676  10.520  23.116  1.00  0.00    -0.267 OA
ATOM     24  H   UNL     1      23.320   7.709  21.864  1.00  0.00     0.170 HD
BRANCH  22  25
ATOM     25  C   UNL     1      21.646   8.461  23.554  1.00  0.00     0.128 A 
ATOM     26  N   UNL     1      21.284   8.853  24.780  1.00  0.00    -0.248 NA
ATOM     27  C   UNL     1      21.155   7.325  22.934  1.00  0.00     0.037 A 
ATOM     28  C   UNL     1      20.404   8.083  25.441  1.00  0.00     0.151 A 
ATOM     29  C   UNL     1      20.246   6.555  23.638  1.00  0.00     0.043 A 
ATOM     30  C   UNL     1      19.865   6.932  24.911  1.00  0.00     0.141 A 
ATOM     31  F   UNL     1      18.979   6.222  25.629  1.00  0.00    -0.205 F 
ENDBRANCH  22  25
ENDBRANCH   3  21
TORSDOF 3
ENDMDL
MODEL 9
REMARK VINA RESULT:    -8.249      3.926      5.258
REMARK INTER + INTRA:          -9.305
REMARK INTER:                  -8.898
REMARK INTRA:                  -0.407
REMARK UNBOUND:                 0.391
REMARK SMILES CN1C(N)=N[C@](C)(c2cc(NC(=O)c3ccc(F)cn3)ccc2F)CS1(=O)=O
REMARK SMILES IDX 8 1 9 2 10 3 21 4 22 5 23 6 24 7 6 8 25 9 5 10 26 11 3 12
REMARK SMILES IDX 27 13 2 14 28 15 4 16 7 17 1 18 11 21 12 22 13 23 14 25
REMARK SMILES IDX 20 26 15 27 19 28 16 29 17 30 18 31
REMARK H PARENT 4 19 4 20 11 24
ROOT
ATOM      1  C   UNL     1      17.922   7.254  22.824  1.00  0.00     0.018 A 
ATOM      2  C   UNL     1      19.071   6.539  22.490  1.00  0.00     0.035 A 
ATOM      3  C   UNL     1      19.927   6.035  23.443  1.00  0.00     0.042 A 
ATOM      4  C   UNL     1      19.680   6.247  24.793  1.00  0.00     0.029 A 
ATOM      5  C   UNL     1      18.542   6.952  25.143  1.00  0.00     0.042 A 
ATOM      6  C   UNL     1      17.675   7.424  24.178  1.00  0.00     0.129 A 
ATOM      7  F   UNL     1      16.550   8.088  24.548  1.00  0.00    -0.207 F 
ENDROOT
BRANCH   1   8
ATOM      8  C   UNL     1      16.994   7.796  21.748  1.00  0.00     0.105 C 
ATOM      9  C   UNL     1      15.551   7.357  21.866  1.00  0.00     0.195 C 
ATOM     10  N   UNL     1      17.494   7.520  20.402  1.00  0.00    -0.240 NA
ATOM     11  S   UNL     1      15.412   5.599  21.665  1.00  0.00     0.239 S 
ATOM     12  C   UNL     1      17.312   6.370  19.830  1.00  0.00     0.205 C 
ATOM     13  O   UNL     1      14.083   5.346  21.138  1.00  0.00    -0.206 OA
ATOM     14  N   UNL     1      16.529   5.332  20.383  1.00  0.00    -0.243 N 
ATOM     15  O   UNL     1      15.985   4.895  22.770  1.00  0.00    -0.206 OA
ATOM     16  N   UNL     1      17.850   6.069  18.607  1.00  0.00    -0.369 N 
ATOM     17  C   UNL     1      17.004   9.326  21.810  1.00  0.00     0.044 C 
ATOM     18  C   UNL     1      16.433   3.988  19.780  1.00  0.00     0.167 C 
ATOM     19  H   UNL     1      18.412   6.729  18.141  1.00  0.00     0.159 HD
ATOM     20  H   UNL     1      17.676   5.192  18.195  1.00  0.00     0.159 HD
ENDBRANCH   1   8
BRANCH   3  21
ATOM     21  N   UNL     1      21.047   5.337  22.974  1.00  0.00    -0.321 N 
ATOM     22  C   UNL     1      22.284   5.842  22.616  1.00  0.00     0.274 C 
ATOM     23  O   UNL     1      22.561   7.032  22.530  1.00  0.00    -0.267 OA
ATOM     24  H   UNL     1      20.940   4.361  22.888  1.00  0.00     0.170 HD
BRANCH  22  25
ATOM     25  C   UNL     1      23.333   4.826  22.359  1.00  0.00     0.128 A 
ATOM     26  N   UNL     1      24.264   5.149  21.455  1.00  0.00    -0.248 NA
ATOM     27  C   UNL     1      23.317   3.627  23.050  1.00  0.00     0.037 A 
ATOM     28  C   UNL     1      25.222   4.243  21.202  1.00  0.00     0.151 A 
ATOM     29  C   UNL     1      24.321   2.716  22.772  1.00  0.00     0.043 A 
ATOM     30  C   UNL     1      25.287   3.021  21.833  1.00  0.00     0.141 A 
ATOM     31  F   UNL     1      26.286   2.172  21.537  1.00  0.00    -0.205 F 
ENDBRANCH  22  25
ENDBRANCH   3  21
TORSDOF 3
ENDMDL
MODEL 10
REMARK VINA RESULT:    -8.229     10.982     12.985
REMARK INTER + INTRA:          -9.282
REMARK INTER:                  -9.601
REMARK INTRA:                   0.319
REMARK UNBOUND:                 0.391
REMARK SMILES CN1C(N)=N[C@](C)(c2cc(NC(=O)c3ccc(F)cn3)ccc2F)CS1(=O)=O
REMARK SMILES IDX 8 1 9 2 10 3 21 4 22 5 23 6 24 7 6 8 25 9 5 10 26 11 3 12
REMARK SMILES IDX 27 13 2 14 28 15 4 16 7 17 1 18 11 21 12 22 13 23 14 25
REMARK SMILES IDX 20 26 15 27 19 28 16 29 17 30 18 31
REMARK H PARENT 4 19 4 20 11 24
ROOT
ATOM      1  C   UNL     1      25.445  12.372  19.321  1.00  0.00     0.018 A 
ATOM      2  C   UNL     1      26.101  11.194  18.968  1.00  0.00     0.035 A 
ATOM      3  C   UNL     1      25.430  10.009  18.767  1.00  0.00     0.042 A 
ATOM      4  C   UNL     1      24.053   9.944  18.935  1.00  0.00     0.029 A 
ATOM      5  C   UNL     1      23.384  11.105  19.282  1.00  0.00     0.042 A 
ATOM      6  C   UNL     1      24.067  12.294  19.449  1.00  0.00     0.129 A 
ATOM      7  F   UNL     1      23.384  13.425  19.760  1.00  0.00    -0.207 F 
ENDROOT
BRANCH   1   8
ATOM      8  C   UNL     1      26.215  13.667  19.533  1.00  0.00     0.105 C 
ATOM      9  C   UNL     1      27.660  13.493  19.942  1.00  0.00     0.195 C 
ATOM     10  N   UNL     1      25.533  14.564  20.465  1.00  0.00    -0.240 NA
ATOM     11  S   UNL     1      27.773  12.698  21.525  1.00  0.00     0.239 S 
ATOM     12  C   UNL     1      25.636  14.418  21.750  1.00  0.00     0.205 C 
ATOM     13  O   UNL     1      29.016  13.146  22.126  1.00  0.00    -0.206 OA
ATOM     14  N   UNL     1      26.489  13.477  22.368  1.00  0.00    -0.243 N 
ATOM     15  O   UNL     1      27.359  11.331  21.459  1.00  0.00    -0.206 OA
ATOM     16  N   UNL     1      24.934  15.195  22.632  1.00  0.00    -0.369 N 
ATOM     17  C   UNL     1      26.211  14.464  18.225  1.00  0.00     0.044 C 
ATOM     18  C   UNL     1      26.503  13.238  23.824  1.00  0.00     0.167 C 
ATOM     19  H   UNL     1      24.313  15.881  22.297  1.00  0.00     0.159 HD
ATOM     20  H   UNL     1      25.051  15.068  23.601  1.00  0.00     0.159 HD
ENDBRANCH   1   8
BRANCH   3  21
ATOM     21  N   UNL     1      26.209   8.898  18.419  1.00  0.00    -0.321 N 
ATOM     22  C   UNL     1      26.554   7.813  19.205  1.00  0.00     0.274 C 
ATOM     23  O   UNL     1      26.331   7.713  20.404  1.00  0.00    -0.267 OA
ATOM     24  H   UNL     1      26.554   8.888  17.497  1.00  0.00     0.170 HD
BRANCH  22  25
ATOM     25  C   UNL     1      27.213   6.695  18.486  1.00  0.00     0.128 A 
ATOM     26  N   UNL     1      28.304   6.181  19.062  1.00  0.00    -0.248 NA
ATOM     27  C   UNL     1      26.684   6.234  17.293  1.00  0.00     0.037 A 
ATOM     28  C   UNL     1      28.920   5.170  18.428  1.00  0.00     0.151 A 
ATOM     29  C   UNL     1      27.338   5.188  16.666  1.00  0.00     0.043 A 
ATOM     30  C   UNL     1      28.475   4.647  17.235  1.00  0.00     0.141 A 
ATOM     31  F   UNL     1      29.137   3.624  16.668  1.00  0.00    -0.205 F 
ENDBRANCH  22  25
ENDBRANCH   3  21
TORSDOF 3
ENDMDL
MODEL 11
REMARK VINA RESULT:    -8.197      6.249      8.280
REMARK INTER + INTRA:          -9.243
REMARK INTER:                  -9.109
REMARK INTRA:                  -0.134
REMARK UNBOUND:                 0.391
REMARK SMILES CN1C(N)=N[C@](C)(c2cc(NC(=O)c3ccc(F)cn3)ccc2F)CS1(=O)=O
REMARK SMILES IDX 8 1 9 2 10 3 21 4 22 5 23 6 24 7 6 8 25 9 5 10 26 11 3 12
REMARK SMILES IDX 27 13 2 14 28 15 4 16 7 17 1 18 11 21 12 22 13 23 14 25
REMARK SMILES IDX 20 26 15 27 19 28 16 29 17 30 18 31
REMARK H PARENT 4 19 4 20 11 24
ROOT
ATOM      1  C   UNL     1      19.461   8.095  23.596  1.00  0.00     0.018 A 
ATOM      2  C   UNL     1      20.546   8.966  23.679  1.00  0.00     0.035 A 
ATOM      3  C   UNL     1      20.533  10.084  24.482  1.00  0.00     0.042 A 
ATOM      4  C   UNL     1      19.408  10.397  25.234  1.00  0.00     0.029 A 
ATOM      5  C   UNL     1      18.323   9.541  25.167  1.00  0.00     0.042 A 
ATOM      6  C   UNL     1      18.362   8.406  24.381  1.00  0.00     0.129 A 
ATOM      7  F   UNL     1      17.294   7.567  24.356  1.00  0.00    -0.207 F 
ENDROOT
BRANCH   1   8
ATOM      8  C   UNL     1      19.507   6.867  22.701  1.00  0.00     0.105 C 
ATOM      9  C   UNL     1      19.035   5.584  23.348  1.00  0.00     0.195 C 
ATOM     10  N   UNL     1      20.827   6.671  22.104  1.00  0.00    -0.240 NA
ATOM     11  S   UNL     1      20.097   5.135  24.697  1.00  0.00     0.239 S 
ATOM     12  C   UNL     1      21.792   6.100  22.756  1.00  0.00     0.205 C 
ATOM     13  O   UNL     1      20.025   3.690  24.818  1.00  0.00    -0.206 OA
ATOM     14  N   UNL     1      21.639   5.515  24.033  1.00  0.00    -0.243 N 
ATOM     15  O   UNL     1      19.966   6.040  25.796  1.00  0.00    -0.206 OA
ATOM     16  N   UNL     1      23.056   5.990  22.242  1.00  0.00    -0.369 N 
ATOM     17  C   UNL     1      18.612   7.109  21.482  1.00  0.00     0.044 C 
ATOM     18  C   UNL     1      22.772   4.980  24.814  1.00  0.00     0.167 C 
ATOM     19  H   UNL     1      23.262   6.368  21.357  1.00  0.00     0.159 HD
ATOM     20  H   UNL     1      23.760   5.534  22.759  1.00  0.00     0.159 HD
ENDBRANCH   1   8
BRANCH   3  21
ATOM     21  N   UNL     1      21.688  10.877  24.472  1.00  0.00    -0.321 N 
ATOM     22  C   UNL     1      21.782  12.252  24.343  1.00  0.00     0.274 C 
ATOM     23  O   UNL     1      20.849  13.000  24.082  1.00  0.00    -0.267 OA
ATOM     24  H   UNL     1      22.541  10.396  24.569  1.00  0.00     0.170 HD
BRANCH  22  25
ATOM     25  C   UNL     1      23.131  12.819  24.582  1.00  0.00     0.128 A 
ATOM     26  N   UNL     1      23.319  13.427  25.758  1.00  0.00    -0.248 NA
ATOM     27  C   UNL     1      24.114  12.694  23.616  1.00  0.00     0.037 A 
ATOM     28  C   UNL     1      24.532  13.952  25.996  1.00  0.00     0.151 A 
ATOM     29  C   UNL     1      25.355  13.241  23.892  1.00  0.00     0.043 A 
ATOM     30  C   UNL     1      25.571  13.884  25.096  1.00  0.00     0.141 A 
ATOM     31  F   UNL     1      26.761  14.422  25.412  1.00  0.00    -0.205 F 
ENDBRANCH  22  25
ENDBRANCH   3  21
TORSDOF 3
ENDMDL
MODEL 12
REMARK VINA RESULT:    -8.193     10.350     12.161
REMARK INTER + INTRA:          -9.238
REMARK INTER:                  -8.857
REMARK INTRA:                  -0.381
REMARK UNBOUND:                 0.391
REMARK SMILES CN1C(N)=N[C@](C)(c2cc(NC(=O)c3ccc(F)cn3)ccc2F)CS1(=O)=O
REMARK SMILES IDX 8 1 9 2 10 3 21 4 22 5 23 6 24 7 6 8 25 9 5 10 26 11 3 12
REMARK SMILES IDX 27 13 2 14 28 15 4 16 7 17 1 18 11 21 12 22 13 23 14 25
REMARK SMILES IDX 20 26 15 27 19 28 16 29 17 30 18 31
REMARK H PARENT 4 19 4 20 11 24
ROOT
ATOM      1  C   UNL     1      25.359  10.953  19.650  1.00  0.00     0.018 A 
ATOM      2  C   UNL     1      26.014   9.892  20.273  1.00  0.00     0.035 A 
ATOM      3  C   UNL     1      26.182   8.670  19.663  1.00  0.00     0.042 A 
ATOM      4  C   UNL     1      25.674   8.443  18.390  1.00  0.00     0.029 A 
ATOM      5  C   UNL     1      25.024   9.486  17.755  1.00  0.00     0.042 A 
ATOM      6  C   UNL     1      24.891  10.717  18.366  1.00  0.00     0.129 A 
ATOM      7  F   UNL     1      24.274  11.733  17.709  1.00  0.00    -0.207 F 
ENDROOT
BRANCH   1   8
ATOM      8  C   UNL     1      25.192  12.293  20.349  1.00  0.00     0.105 C 
ATOM      9  C   UNL     1      25.576  13.500  19.521  1.00  0.00     0.195 C 
ATOM     10  N   UNL     1      25.881  12.329  21.638  1.00  0.00    -0.240 NA
ATOM     11  S   UNL     1      27.307  13.466  19.129  1.00  0.00     0.239 S 
ATOM     12  C   UNL     1      27.154  12.563  21.724  1.00  0.00     0.205 C 
ATOM     13  O   UNL     1      27.719  14.848  18.959  1.00  0.00    -0.206 OA
ATOM     14  N   UNL     1      27.964  12.918  20.622  1.00  0.00    -0.243 N 
ATOM     15  O   UNL     1      27.619  12.416  18.211  1.00  0.00    -0.206 OA
ATOM     16  N   UNL     1      27.828  12.512  22.915  1.00  0.00    -0.369 N 
ATOM     17  C   UNL     1      23.722  12.467  20.741  1.00  0.00     0.044 C 
ATOM     18  C   UNL     1      29.431  13.059  20.714  1.00  0.00     0.167 C 
ATOM     19  H   UNL     1      27.349  12.274  23.741  1.00  0.00     0.159 HD
ATOM     20  H   UNL     1      28.791  12.714  22.945  1.00  0.00     0.159 HD
ENDBRANCH   1   8
BRANCH   3  21
ATOM     21  N   UNL     1      26.856   7.688  20.401  1.00  0.00    -0.321 N 
ATOM     22  C   UNL     1      26.332   6.560  21.006  1.00  0.00     0.274 C 
ATOM     23  O   UNL     1      25.139   6.302  21.103  1.00  0.00    -0.267 OA
ATOM     24  H   UNL     1      27.827   7.817  20.500  1.00  0.00     0.170 HD
BRANCH  22  25
ATOM     25  C   UNL     1      27.333   5.601  21.534  1.00  0.00     0.128 A 
ATOM     26  N   UNL     1      26.849   4.506  22.130  1.00  0.00    -0.248 NA
ATOM     27  C   UNL     1      28.684   5.861  21.384  1.00  0.00     0.037 A 
ATOM     28  C   UNL     1      27.737   3.625  22.620  1.00  0.00     0.151 A 
ATOM     29  C   UNL     1      29.574   4.931  21.894  1.00  0.00     0.043 A 
ATOM     30  C   UNL     1      29.099   3.798  22.525  1.00  0.00     0.141 A 
ATOM     31  F   UNL     1      29.925   2.864  23.027  1.00  0.00    -0.205 F 
ENDBRANCH  22  25
ENDBRANCH   3  21
TORSDOF 3
ENDMDL
MODEL 13
REMARK VINA RESULT:    -8.149      9.890     12.065
REMARK INTER + INTRA:          -9.187
REMARK INTER:                  -8.814
REMARK INTRA:                  -0.374
REMARK UNBOUND:                 0.391
REMARK SMILES CN1C(N)=N[C@](C)(c2cc(NC(=O)c3ccc(F)cn3)ccc2F)CS1(=O)=O
REMARK SMILES IDX 8 1 9 2 10 3 21 4 22 5 23 6 24 7 6 8 25 9 5 10 26 11 3 12
REMARK SMILES IDX 27 13 2 14 28 15 4 16 7 17 1 18 11 21 12 22 13 23 14 25
REMARK SMILES IDX 20 26 15 27 19 28 16 29 17 30 18 31
REMARK H PARENT 4 19 4 20 11 24
ROOT
ATOM      1  C   UNL     1      25.670  13.237  19.916  1.00  0.00     0.018 A 
ATOM      2  C   UNL     1      24.908  12.362  20.688  1.00  0.00     0.035 A 
ATOM      3  C   UNL     1      23.827  11.679  20.177  1.00  0.00     0.042 A 
ATOM      4  C   UNL     1      23.442  11.861  18.855  1.00  0.00     0.029 A 
ATOM      5  C   UNL     1      24.189  12.723  18.073  1.00  0.00     0.042 A 
ATOM      6  C   UNL     1      25.289  13.377  18.590  1.00  0.00     0.129 A 
ATOM      7  F   UNL     1      26.023  14.196  17.793  1.00  0.00    -0.207 F 
ENDROOT
BRANCH   1   8
ATOM      8  C   UNL     1      26.860  13.976  20.509  1.00  0.00     0.105 C 
ATOM      9  C   UNL     1      28.191  13.670  19.860  1.00  0.00     0.195 C 
ATOM     10  N   UNL     1      26.953  13.793  21.957  1.00  0.00    -0.240 NA
ATOM     11  S   UNL     1      28.624  11.964  20.090  1.00  0.00     0.239 S 
ATOM     12  C   UNL     1      27.488  12.732  22.477  1.00  0.00     0.205 C 
ATOM     13  O   UNL     1      30.074  11.898  20.068  1.00  0.00    -0.206 OA
ATOM     14  N   UNL     1      28.128  11.724  21.721  1.00  0.00    -0.243 N 
ATOM     15  O   UNL     1      27.769  11.097  19.341  1.00  0.00    -0.206 OA
ATOM     16  N   UNL     1      27.503  12.507  23.827  1.00  0.00    -0.369 N 
ATOM     17  C   UNL     1      26.627  15.482  20.368  1.00  0.00     0.044 C 
ATOM     18  C   UNL     1      28.621  10.465  22.314  1.00  0.00     0.167 C 
ATOM     19  H   UNL     1      27.081  13.154  24.438  1.00  0.00     0.159 HD
ATOM     20  H   UNL     1      27.934  11.699  24.188  1.00  0.00     0.159 HD
ENDBRANCH   1   8
BRANCH   3  21
ATOM     21  N   UNL     1      23.145  10.832  21.061  1.00  0.00    -0.321 N 
ATOM     22  C   UNL     1      23.492   9.555  21.463  1.00  0.00     0.274 C 
ATOM     23  O   UNL     1      24.411   8.895  20.998  1.00  0.00    -0.267 OA
ATOM     24  H   UNL     1      22.313  11.193  21.444  1.00  0.00     0.170 HD
BRANCH  22  25
ATOM     25  C   UNL     1      22.678   8.998  22.571  1.00  0.00     0.128 A 
ATOM     26  N   UNL     1      22.428   7.685  22.521  1.00  0.00    -0.248 NA
ATOM     27  C   UNL     1      22.233   9.827  23.586  1.00  0.00     0.037 A 
ATOM     28  C   UNL     1      21.690   7.158  23.512  1.00  0.00     0.151 A 
ATOM     29  C   UNL     1      21.480   9.253  24.596  1.00  0.00     0.043 A 
ATOM     30  C   UNL     1      21.198   7.902  24.561  1.00  0.00     0.141 A 
ATOM     31  F   UNL     1      20.478   7.299  25.523  1.00  0.00    -0.205 F 
ENDBRANCH  22  25
ENDBRANCH   3  21
TORSDOF 3
ENDMDL
MODEL 14
REMARK VINA RESULT:    -8.142      5.966      8.278
REMARK INTER + INTRA:          -9.179
REMARK INTER:                  -9.236
REMARK INTRA:                   0.057
REMARK UNBOUND:                 0.391
REMARK SMILES CN1C(N)=N[C@](C)(c2cc(NC(=O)c3ccc(F)cn3)ccc2F)CS1(=O)=O
REMARK SMILES IDX 8 1 9 2 10 3 21 4 22 5 23 6 24 7 6 8 25 9 5 10 26 11 3 12
REMARK SMILES IDX 27 13 2 14 28 15 4 16 7 17 1 18 11 21 12 22 13 23 14 25
REMARK SMILES IDX 20 26 15 27 19 28 16 29 17 30 18 31
REMARK H PARENT 4 19 4 20 11 24
ROOT
ATOM      1  C   UNL     1      20.883   6.407  23.825  1.00  0.00     0.018 A 
ATOM      2  C   UNL     1      21.450   7.516  23.200  1.00  0.00     0.035 A 
ATOM      3  C   UNL     1      22.578   7.422  22.416  1.00  0.00     0.042 A 
ATOM      4  C   UNL     1      23.212   6.199  22.239  1.00  0.00     0.029 A 
ATOM      5  C   UNL     1      22.660   5.086  22.849  1.00  0.00     0.042 A 
ATOM      6  C   UNL     1      21.510   5.190  23.606  1.00  0.00     0.129 A 
ATOM      7  F   UNL     1      20.973   4.078  24.171  1.00  0.00    -0.207 F 
ENDROOT
BRANCH   1   8
ATOM      8  C   UNL     1      19.634   6.542  24.683  1.00  0.00     0.105 C 
ATOM      9  C   UNL     1      18.508   5.596  24.328  1.00  0.00     0.195 C 
ATOM     10  N   UNL     1      19.141   7.918  24.720  1.00  0.00    -0.240 NA
ATOM     11  S   UNL     1      17.906   5.924  22.691  1.00  0.00     0.239 S 
ATOM     12  C   UNL     1      18.409   8.406  23.767  1.00  0.00     0.205 C 
ATOM     13  O   UNL     1      16.515   5.509  22.671  1.00  0.00    -0.206 OA
ATOM     14  N   UNL     1      17.925   7.645  22.679  1.00  0.00    -0.243 N 
ATOM     15  O   UNL     1      18.866   5.564  21.694  1.00  0.00    -0.206 OA
ATOM     16  N   UNL     1      18.015   9.717  23.746  1.00  0.00    -0.369 N 
ATOM     17  C   UNL     1      20.005   6.271  26.143  1.00  0.00     0.044 C 
ATOM     18  C   UNL     1      17.200   8.241  21.540  1.00  0.00     0.167 C 
ATOM     19  H   UNL     1      18.301  10.328  24.463  1.00  0.00     0.159 HD
ATOM     20  H   UNL     1      17.444  10.049  23.016  1.00  0.00     0.159 HD
ENDBRANCH   1   8
BRANCH   3  21
ATOM     21  N   UNL     1      23.047   8.614  21.847  1.00  0.00    -0.321 N 
ATOM     22  C   UNL     1      24.212   8.820  21.129  1.00  0.00     0.274 C 
ATOM     23  O   UNL     1      25.104   7.995  20.983  1.00  0.00    -0.267 OA
ATOM     24  H   UNL     1      22.475   9.405  21.975  1.00  0.00     0.170 HD
BRANCH  22  25
ATOM     25  C   UNL     1      24.327  10.146  20.476  1.00  0.00     0.128 A 
ATOM     26  N   UNL     1      25.351  10.912  20.865  1.00  0.00    -0.248 NA
ATOM     27  C   UNL     1      23.407  10.524  19.514  1.00  0.00     0.037 A 
ATOM     28  C   UNL     1      25.473  12.120  20.290  1.00  0.00     0.151 A 
ATOM     29  C   UNL     1      23.562  11.772  18.935  1.00  0.00     0.043 A 
ATOM     30  C   UNL     1      24.606  12.587  19.329  1.00  0.00     0.141 A 
ATOM     31  F   UNL     1      24.803  13.802  18.789  1.00  0.00    -0.205 F 
ENDBRANCH  22  25
ENDBRANCH   3  21
TORSDOF 3
ENDMDL
MODEL 15
REMARK VINA RESULT:    -8.068      9.828     12.097
REMARK INTER + INTRA:          -9.092
REMARK INTER:                  -9.557
REMARK INTRA:                   0.465
REMARK UNBOUND:                 0.391
REMARK SMILES CN1C(N)=N[C@](C)(c2cc(NC(=O)c3ccc(F)cn3)ccc2F)CS1(=O)=O
REMARK SMILES IDX 8 1 9 2 10 3 21 4 22 5 23 6 24 7 6 8 25 9 5 10 26 11 3 12
REMARK SMILES IDX 27 13 2 14 28 15 4 16 7 17 1 18 11 21 12 22 13 23 14 25
REMARK SMILES IDX 20 26 15 27 19 28 16 29 17 30 18 31
REMARK H PARENT 4 19 4 20 11 24
ROOT
ATOM      1  C   UNL     1      21.354  12.443  26.434  1.00  0.00     0.018 A 
ATOM      2  C   UNL     1      21.699  12.198  25.106  1.00  0.00     0.035 A 
ATOM      3  C   UNL     1      22.856  12.688  24.543  1.00  0.00     0.042 A 
ATOM      4  C   UNL     1      23.722  13.477  25.291  1.00  0.00     0.029 A 
ATOM      5  C   UNL     1      23.397  13.727  26.612  1.00  0.00     0.042 A 
ATOM      6  C   UNL     1      22.249  13.202  27.172  1.00  0.00     0.129 A 
ATOM      7  F   UNL     1      21.968  13.438  28.479  1.00  0.00    -0.207 F 
ENDROOT
BRANCH   1   8
ATOM      8  C   UNL     1      20.069  11.884  27.027  1.00  0.00     0.105 C 
ATOM      9  C   UNL     1      18.962  11.628  26.030  1.00  0.00     0.195 C 
ATOM     10  N   UNL     1      19.572  12.705  28.130  1.00  0.00    -0.240 NA
ATOM     11  S   UNL     1      18.428  13.146  25.281  1.00  0.00     0.239 S 
ATOM     12  C   UNL     1      18.880  13.782  27.920  1.00  0.00     0.205 C 
ATOM     13  O   UNL     1      17.040  12.955  24.901  1.00  0.00    -0.206 OA
ATOM     14  N   UNL     1      18.444  14.199  26.643  1.00  0.00    -0.243 N 
ATOM     15  O   UNL     1      19.430  13.689  24.417  1.00  0.00    -0.206 OA
ATOM     16  N   UNL     1      18.484  14.607  28.939  1.00  0.00    -0.369 N 
ATOM     17  C   UNL     1      20.380  10.548  27.707  1.00  0.00     0.044 C 
ATOM     18  C   UNL     1      17.766  15.489  26.405  1.00  0.00     0.167 C 
ATOM     19  H   UNL     1      18.739  14.400  29.867  1.00  0.00     0.159 HD
ATOM     20  H   UNL     1      17.944  15.407  28.744  1.00  0.00     0.159 HD
ENDBRANCH   1   8
BRANCH   3  21
ATOM     21  N   UNL     1      23.083  12.372  23.198  1.00  0.00    -0.321 N 
ATOM     22  C   UNL     1      23.404  13.226  22.158  1.00  0.00     0.274 C 
ATOM     23  O   UNL     1      23.415  14.448  22.229  1.00  0.00    -0.267 OA
ATOM     24  H   UNL     1      23.005  11.419  22.962  1.00  0.00     0.170 HD
BRANCH  22  25
ATOM     25  C   UNL     1      23.790  12.563  20.889  1.00  0.00     0.128 A 
ATOM     26  N   UNL     1      24.483  13.305  20.020  1.00  0.00    -0.248 NA
ATOM     27  C   UNL     1      23.441  11.243  20.665  1.00  0.00     0.037 A 
ATOM     28  C   UNL     1      24.841  12.727  18.861  1.00  0.00     0.151 A 
ATOM     29  C   UNL     1      23.829  10.673  19.466  1.00  0.00     0.043 A 
ATOM     30  C   UNL     1      24.536  11.423  18.545  1.00  0.00     0.141 A 
ATOM     31  F   UNL     1      24.942  10.910  17.371  1.00  0.00    -0.205 F 
ENDBRANCH  22  25
ENDBRANCH   3  21
TORSDOF 3
ENDMDL
MODEL 16
REMARK VINA RESULT:    -8.058      9.906     11.992
REMARK INTER + INTRA:          -9.080
REMARK INTER:                  -8.772
REMARK INTRA:                  -0.309
REMARK UNBOUND:                 0.391
REMARK SMILES CN1C(N)=N[C@](C)(c2cc(NC(=O)c3ccc(F)cn3)ccc2F)CS1(=O)=O
REMARK SMILES IDX 8 1 9 2 10 3 21 4 22 5 23 6 24 7 6 8 25 9 5 10 26 11 3 12
REMARK SMILES IDX 27 13 2 14 28 15 4 16 7 17 1 18 11 21 12 22 13 23 14 25
REMARK SMILES IDX 20 26 15 27 19 28 16 29 17 30 18 31
REMARK H PARENT 4 19 4 20 11 24
ROOT
ATOM      1  C   UNL     1      24.620  12.142  20.429  1.00  0.00     0.018 A 
ATOM      2  C   UNL     1      24.998  10.850  20.791  1.00  0.00     0.035 A 
ATOM      3  C   UNL     1      24.540   9.735  20.125  1.00  0.00     0.042 A 
ATOM      4  C   UNL     1      23.652   9.865  19.065  1.00  0.00     0.029 A 
ATOM      5  C   UNL     1      23.269  11.141  18.690  1.00  0.00     0.042 A 
ATOM      6  C   UNL     1      23.762  12.251  19.346  1.00  0.00     0.129 A 
ATOM      7  F   UNL     1      23.393  13.493  18.940  1.00  0.00    -0.207 F 
ENDROOT
BRANCH   1   8
ATOM      8  C   UNL     1      25.146  13.354  21.183  1.00  0.00     0.105 C 
ATOM      9  C   UNL     1      25.902  14.355  20.338  1.00  0.00     0.195 C 
ATOM     10  N   UNL     1      25.946  12.972  22.346  1.00  0.00    -0.240 NA
ATOM     11  S   UNL     1      27.378  13.627  19.673  1.00  0.00     0.239 S 
ATOM     12  C   UNL     1      27.194  12.635  22.233  1.00  0.00     0.205 C 
ATOM     13  O   UNL     1      28.323  14.712  19.478  1.00  0.00    -0.206 OA
ATOM     14  N   UNL     1      27.924  12.713  21.026  1.00  0.00    -0.243 N 
ATOM     15  O   UNL     1      27.079  12.635  18.688  1.00  0.00    -0.206 OA
ATOM     16  N   UNL     1      27.930  12.191  23.299  1.00  0.00    -0.369 N 
ATOM     17  C   UNL     1      23.964  14.098  21.810  1.00  0.00     0.044 C 
ATOM     18  C   UNL     1      29.304  12.209  20.886  1.00  0.00     0.167 C 
ATOM     19  H   UNL     1      27.509  12.102  24.185  1.00  0.00     0.159 HD
ATOM     20  H   UNL     1      28.880  11.961  23.180  1.00  0.00     0.159 HD
ENDBRANCH   1   8
BRANCH   3  21
ATOM     21  N   UNL     1      24.994   8.495  20.591  1.00  0.00    -0.321 N 
ATOM     22  C   UNL     1      25.766   7.560  19.926  1.00  0.00     0.274 C 
ATOM     23  O   UNL     1      26.077   7.616  18.743  1.00  0.00    -0.267 OA
ATOM     24  H   UNL     1      24.731   8.259  21.510  1.00  0.00     0.170 HD
BRANCH  22  25
ATOM     25  C   UNL     1      26.262   6.438  20.760  1.00  0.00     0.128 A 
ATOM     26  N   UNL     1      27.586   6.366  20.931  1.00  0.00    -0.248 NA
ATOM     27  C   UNL     1      25.365   5.544  21.319  1.00  0.00     0.037 A 
ATOM     28  C   UNL     1      28.059   5.356  21.680  1.00  0.00     0.151 A 
ATOM     29  C   UNL     1      25.882   4.518  22.090  1.00  0.00     0.043 A 
ATOM     30  C   UNL     1      27.248   4.415  22.273  1.00  0.00     0.141 A 
ATOM     31  F   UNL     1      27.795   3.441  23.020  1.00  0.00    -0.205 F 
ENDBRANCH  22  25
ENDBRANCH   3  21
TORSDOF 3
ENDMDL
MODEL 17
REMARK VINA RESULT:    -7.999      9.768     12.005
REMARK INTER + INTRA:          -9.010
REMARK INTER:                  -9.306
REMARK INTRA:                   0.296
REMARK UNBOUND:                 0.391
REMARK SMILES CN1C(N)=N[C@](C)(c2cc(NC(=O)c3ccc(F)cn3)ccc2F)CS1(=O)=O
REMARK SMILES IDX 8 1 9 2 10 3 21 4 22 5 23 6 24 7 6 8 25 9 5 10 26 11 3 12
REMARK SMILES IDX 27 13 2 14 28 15 4 16 7 17 1 18 11 21 12 22 13 23 14 25
REMARK SMILES IDX 20 26 15 27 19 28 16 29 17 30 18 31
REMARK H PARENT 4 19 4 20 11 24
ROOT
ATOM      1  C   UNL     1      26.038  11.993  20.230  1.00  0.00     0.018 A 
ATOM      2  C   UNL     1      25.366  11.035  20.987  1.00  0.00     0.035 A 
ATOM      3  C   UNL     1      24.073  10.652  20.711  1.00  0.00     0.042 A 
ATOM      4  C   UNL     1      23.376  11.237  19.661  1.00  0.00     0.029 A 
ATOM      5  C   UNL     1      24.029  12.187  18.896  1.00  0.00     0.042 A 
ATOM      6  C   UNL     1      25.337  12.538  19.165  1.00  0.00     0.129 A 
ATOM      7  F   UNL     1      25.965  13.452  18.381  1.00  0.00    -0.207 F 
ENDROOT
BRANCH   1   8
ATOM      8  C   UNL     1      27.468  12.392  20.559  1.00  0.00     0.105 C 
ATOM      9  C   UNL     1      27.894  12.131  21.986  1.00  0.00     0.195 C 
ATOM     10  N   UNL     1      27.747  13.781  20.197  1.00  0.00    -0.240 NA
ATOM     11  S   UNL     1      26.937  13.110  23.115  1.00  0.00     0.239 S 
ATOM     12  C   UNL     1      27.408  14.767  20.969  1.00  0.00     0.205 C 
ATOM     13  O   UNL     1      27.771  13.329  24.283  1.00  0.00    -0.206 OA
ATOM     14  N   UNL     1      26.857  14.601  22.259  1.00  0.00    -0.243 N 
ATOM     15  O   UNL     1      25.576  12.673  23.169  1.00  0.00    -0.206 OA
ATOM     16  N   UNL     1      27.584  16.074  20.604  1.00  0.00    -0.369 N 
ATOM     17  C   UNL     1      28.421  11.604  19.655  1.00  0.00     0.044 C 
ATOM     18  C   UNL     1      26.362  15.729  23.073  1.00  0.00     0.167 C 
ATOM     19  H   UNL     1      27.963  16.292  19.721  1.00  0.00     0.159 HD
ATOM     20  H   UNL     1      27.331  16.797  21.223  1.00  0.00     0.159 HD
ENDBRANCH   1   8
BRANCH   3  21
ATOM     21  N   UNL     1      23.512   9.682  21.551  1.00  0.00    -0.321 N 
ATOM     22  C   UNL     1      22.807   9.869  22.726  1.00  0.00     0.274 C 
ATOM     23  O   UNL     1      22.669  10.941  23.301  1.00  0.00    -0.267 OA
ATOM     24  H   UNL     1      23.635   8.746  21.268  1.00  0.00     0.170 HD
BRANCH  22  25
ATOM     25  C   UNL     1      22.159   8.654  23.277  1.00  0.00     0.128 A 
ATOM     26  N   UNL     1      21.451   8.817  24.399  1.00  0.00    -0.248 NA
ATOM     27  C   UNL     1      22.297   7.441  22.624  1.00  0.00     0.037 A 
ATOM     28  C   UNL     1      20.858   7.729  24.919  1.00  0.00     0.151 A 
ATOM     29  C   UNL     1      21.669   6.341  23.180  1.00  0.00     0.043 A 
ATOM     30  C   UNL     1      20.942   6.480  24.347  1.00  0.00     0.141 A 
ATOM     31  F   UNL     1      20.308   5.443  24.918  1.00  0.00    -0.205 F 
ENDBRANCH  22  25
ENDBRANCH   3  21
TORSDOF 3
ENDMDL
MODEL 18
REMARK VINA RESULT:    -7.980      5.018      6.915
REMARK INTER + INTRA:          -8.988
REMARK INTER:                  -9.124
REMARK INTRA:                   0.135
REMARK UNBOUND:                 0.391
REMARK SMILES CN1C(N)=N[C@](C)(c2cc(NC(=O)c3ccc(F)cn3)ccc2F)CS1(=O)=O
REMARK SMILES IDX 8 1 9 2 10 3 21 4 22 5 23 6 24 7 6 8 25 9 5 10 26 11 3 12
REMARK SMILES IDX 27 13 2 14 28 15 4 16 7 17 1 18 11 21 12 22 13 23 14 25
REMARK SMILES IDX 20 26 15 27 19 28 16 29 17 30 18 31
REMARK H PARENT 4 19 4 20 11 24
ROOT
ATOM      1  C   UNL     1      19.860   5.971  23.566  1.00  0.00     0.018 A 
ATOM      2  C   UNL     1      20.891   5.648  22.686  1.00  0.00     0.035 A 
ATOM      3  C   UNL     1      21.906   4.782  23.027  1.00  0.00     0.042 A 
ATOM      4  C   UNL     1      21.947   4.210  24.292  1.00  0.00     0.029 A 
ATOM      5  C   UNL     1      20.930   4.517  25.178  1.00  0.00     0.042 A 
ATOM      6  C   UNL     1      19.901   5.362  24.811  1.00  0.00     0.129 A 
ATOM      7  F   UNL     1      18.899   5.624  25.689  1.00  0.00    -0.207 F 
ENDROOT
BRANCH   1   8
ATOM      8  C   UNL     1      18.751   6.929  23.159  1.00  0.00     0.105 C 
ATOM      9  C   UNL     1      17.364   6.535  23.617  1.00  0.00     0.195 C 
ATOM     10  N   UNL     1      18.750   7.187  21.720  1.00  0.00    -0.240 NA
ATOM     11  S   UNL     1      16.867   5.005  22.866  1.00  0.00     0.239 S 
ATOM     12  C   UNL     1      18.202   6.364  20.880  1.00  0.00     0.205 C 
ATOM     13  O   UNL     1      15.417   5.032  22.792  1.00  0.00    -0.206 OA
ATOM     14  N   UNL     1      17.464   5.223  21.266  1.00  0.00    -0.243 N 
ATOM     15  O   UNL     1      17.625   3.901  23.366  1.00  0.00    -0.206 OA
ATOM     16  N   UNL     1      18.271   6.548  19.525  1.00  0.00    -0.369 N 
ATOM     17  C   UNL     1      19.045   8.308  23.755  1.00  0.00     0.044 C 
ATOM     18  C   UNL     1      16.953   4.230  20.300  1.00  0.00     0.167 C 
ATOM     19  H   UNL     1      18.764   7.317  19.158  1.00  0.00     0.159 HD
ATOM     20  H   UNL     1      17.827   5.913  18.918  1.00  0.00     0.159 HD
ENDBRANCH   1   8
BRANCH   3  21
ATOM     21  N   UNL     1      22.882   4.544  22.050  1.00  0.00    -0.321 N 
ATOM     22  C   UNL     1      24.237   4.328  22.228  1.00  0.00     0.274 C 
ATOM     23  O   UNL     1      24.835   4.442  23.290  1.00  0.00    -0.267 OA
ATOM     24  H   UNL     1      22.563   4.528  21.119  1.00  0.00     0.170 HD
BRANCH  22  25
ATOM     25  C   UNL     1      24.973   3.895  21.016  1.00  0.00     0.128 A 
ATOM     26  N   UNL     1      25.241   2.588  20.920  1.00  0.00    -0.248 NA
ATOM     27  C   UNL     1      25.334   4.825  20.056  1.00  0.00     0.037 A 
ATOM     28  C   UNL     1      25.911   2.172  19.833  1.00  0.00     0.151 A 
ATOM     29  C   UNL     1      26.018   4.365  18.945  1.00  0.00     0.043 A 
ATOM     30  C   UNL     1      26.317   3.021  18.829  1.00  0.00     0.141 A 
ATOM     31  F   UNL     1      26.971   2.527  17.764  1.00  0.00    -0.205 F 
ENDBRANCH  22  25
ENDBRANCH   3  21
TORSDOF 3
ENDMDL
MODEL 19
REMARK VINA RESULT:    -7.976     10.317     12.125
REMARK INTER + INTRA:          -8.984
REMARK INTER:                  -8.618
REMARK INTRA:                  -0.366
REMARK UNBOUND:                 0.391
REMARK SMILES CN1C(N)=N[C@](C)(c2cc(NC(=O)c3ccc(F)cn3)ccc2F)CS1(=O)=O
REMARK SMILES IDX 8 1 9 2 10 3 21 4 22 5 23 6 24 7 6 8 25 9 5 10 26 11 3 12
REMARK SMILES IDX 27 13 2 14 28 15 4 16 7 17 1 18 11 21 12 22 13 23 14 25
REMARK SMILES IDX 20 26 15 27 19 28 16 29 17 30 18 31
REMARK H PARENT 4 19 4 20 11 24
ROOT
ATOM      1  C   UNL     1      26.366  12.580  21.961  1.00  0.00     0.018 A 
ATOM      2  C   UNL     1      25.087  12.625  22.514  1.00  0.00     0.035 A 
ATOM      3  C   UNL     1      24.793  13.377  23.629  1.00  0.00     0.042 A 
ATOM      4  C   UNL     1      25.787  14.111  24.264  1.00  0.00     0.029 A 
ATOM      5  C   UNL     1      27.062  14.081  23.727  1.00  0.00     0.042 A 
ATOM      6  C   UNL     1      27.335  13.347  22.589  1.00  0.00     0.129 A 
ATOM      7  F   UNL     1      28.588  13.357  22.066  1.00  0.00    -0.207 F 
ENDROOT
BRANCH   1   8
ATOM      8  C   UNL     1      26.659  11.741  20.726  1.00  0.00     0.105 C 
ATOM      9  C   UNL     1      27.230  12.506  19.553  1.00  0.00     0.195 C 
ATOM     10  N   UNL     1      25.494  10.966  20.301  1.00  0.00    -0.240 NA
ATOM     11  S   UNL     1      26.063  13.703  18.956  1.00  0.00     0.239 S 
ATOM     12  C   UNL     1      24.548  11.494  19.587  1.00  0.00     0.205 C 
ATOM     13  O   UNL     1      26.351  13.895  17.547  1.00  0.00    -0.206 OA
ATOM     14  N   UNL     1      24.599  12.803  19.059  1.00  0.00    -0.243 N 
ATOM     15  O   UNL     1      25.876  14.769  19.891  1.00  0.00    -0.206 OA
ATOM     16  N   UNL     1      23.411  10.806  19.257  1.00  0.00    -0.369 N 
ATOM     17  C   UNL     1      27.676  10.658  21.094  1.00  0.00     0.044 C 
ATOM     18  C   UNL     1      23.463  13.432  18.356  1.00  0.00     0.167 C 
ATOM     19  H   UNL     1      23.284   9.884  19.578  1.00  0.00     0.159 HD
ATOM     20  H   UNL     1      22.722  11.232  18.698  1.00  0.00     0.159 HD
ENDBRANCH   1   8
BRANCH   3  21
ATOM     21  N   UNL     1      23.469  13.334  24.084  1.00  0.00    -0.321 N 
ATOM     22  C   UNL     1      22.875  12.390  24.903  1.00  0.00     0.274 C 
ATOM     23  O   UNL     1      23.397  11.343  25.265  1.00  0.00    -0.267 OA
ATOM     24  H   UNL     1      22.888  14.069  23.784  1.00  0.00     0.170 HD
BRANCH  22  25
ATOM     25  C   UNL     1      21.513  12.733  25.380  1.00  0.00     0.128 A 
ATOM     26  N   UNL     1      21.339  12.759  26.705  1.00  0.00    -0.248 NA
ATOM     27  C   UNL     1      20.511  13.013  24.467  1.00  0.00     0.037 A 
ATOM     28  C   UNL     1      20.113  13.063  27.162  1.00  0.00     0.151 A 
ATOM     29  C   UNL     1      19.261  13.329  24.968  1.00  0.00     0.043 A 
ATOM     30  C   UNL     1      19.052  13.351  26.334  1.00  0.00     0.141 A 
ATOM     31  F   UNL     1      17.857  13.661  26.866  1.00  0.00    -0.205 F 
ENDBRANCH  22  25
ENDBRANCH   3  21
TORSDOF 3
ENDMDL
MODEL 20
REMARK VINA RESULT:    -7.919     10.168     12.385
REMARK INTER + INTRA:          -8.917
REMARK INTER:                  -8.928
REMARK INTRA:                   0.011
REMARK UNBOUND:                 0.391
REMARK SMILES CN1C(N)=N[C@](C)(c2cc(NC(=O)c3ccc(F)cn3)ccc2F)CS1(=O)=O
REMARK SMILES IDX 8 1 9 2 10 3 21 4 22 5 23 6 24 7 6 8 25 9 5 10 26 11 3 12
REMARK SMILES IDX 27 13 2 14 28 15 4 16 7 17 1 18 11 21 12 22 13 23 14 25
REMARK SMILES IDX 20 26 15 27 19 28 16 29 17 30 18 31
REMARK H PARENT 4 19 4 20 11 24
ROOT
ATOM      1  C   UNL     1      25.856  12.810  19.684  1.00  0.00     0.018 A 
ATOM      2  C   UNL     1      24.911  12.401  20.623  1.00  0.00     0.035 A 
ATOM      3  C   UNL     1      24.257  11.193  20.532  1.00  0.00     0.042 A 
ATOM      4  C   UNL     1      24.507  10.337  19.467  1.00  0.00     0.029 A 
ATOM      5  C   UNL     1      25.445  10.725  18.527  1.00  0.00     0.042 A 
ATOM      6  C   UNL     1      26.117  11.926  18.649  1.00  0.00     0.129 A 
ATOM      7  F   UNL     1      27.054  12.270  17.729  1.00  0.00    -0.207 F 
ENDROOT
BRANCH   1   8
ATOM      8  C   UNL     1      26.564  14.150  19.815  1.00  0.00     0.105 C 
ATOM      9  C   UNL     1      28.060  14.067  20.021  1.00  0.00     0.195 C 
ATOM     10  N   UNL     1      25.961  14.991  20.847  1.00  0.00    -0.240 NA
ATOM     11  S   UNL     1      28.437  13.264  21.558  1.00  0.00     0.239 S 
ATOM     12  C   UNL     1      26.247  14.839  22.103  1.00  0.00     0.205 C 
ATOM     13  O   UNL     1      29.720  13.786  21.994  1.00  0.00    -0.206 OA
ATOM     14  N   UNL     1      27.234  13.949  22.582  1.00  0.00    -0.243 N 
ATOM     15  O   UNL     1      28.106  11.874  21.523  1.00  0.00    -0.206 OA
ATOM     16  N   UNL     1      25.625  15.559  23.088  1.00  0.00    -0.369 N 
ATOM     17  C   UNL     1      26.331  14.959  18.535  1.00  0.00     0.044 C 
ATOM     18  C   UNL     1      27.462  13.696  24.018  1.00  0.00     0.167 C 
ATOM     19  H   UNL     1      24.921  16.206  22.853  1.00  0.00     0.159 HD
ATOM     20  H   UNL     1      25.881  15.429  24.029  1.00  0.00     0.159 HD
ENDBRANCH   1   8
BRANCH   3  21
ATOM     21  N   UNL     1      23.328  10.904  21.541  1.00  0.00    -0.321 N 
ATOM     22  C   UNL     1      23.065   9.685  22.139  1.00  0.00     0.274 C 
ATOM     23  O   UNL     1      23.527   8.610  21.781  1.00  0.00    -0.267 OA
ATOM     24  H   UNL     1      22.796  11.666  21.865  1.00  0.00     0.170 HD
BRANCH  22  25
ATOM     25  C   UNL     1      22.175   9.741  23.324  1.00  0.00     0.128 A 
ATOM     26  N   UNL     1      22.238  10.854  24.061  1.00  0.00    -0.248 NA
ATOM     27  C   UNL     1      21.333   8.678  23.607  1.00  0.00     0.037 A 
ATOM     28  C   UNL     1      21.444  10.926  25.142  1.00  0.00     0.151 A 
ATOM     29  C   UNL     1      20.523   8.784  24.723  1.00  0.00     0.043 A 
ATOM     30  C   UNL     1      20.578   9.920  25.508  1.00  0.00     0.141 A 
ATOM     31  F   UNL     1      19.804  10.071  26.596  1.00  0.00    -0.205 F 
ENDBRANCH  22  25
ENDBRANCH   3  21
TORSDOF 3
ENDMDL
