MODEL 1
REMARK VINA RESULT:   -10.383      0.000      0.000
REMARK INTER + INTRA:         -18.772
REMARK INTER:                 -17.059
REMARK INTRA:                  -1.713
REMARK UNBOUND:                -1.713
REMARK SMILES CCOc1cc2ncc(C#N)c(Nc3ccc(OCc4ccccn4)c(Cl)c3)c2cc1NC(=O)/C=C/CN(C)C
REMARK SMILES IDX 7 1 11 2 29 3 12 4 6 5 30 6 31 7 4 8 5 9 9 10 8 11 10 12
REMARK SMILES IDX 13 13 14 15 26 16 28 17 17 18 16 19 15 20 27 21 18 22 19 23
REMARK SMILES IDX 20 24 25 25 21 26 24 27 22 28 23 29 32 30 33 31 34 32 35 34
REMARK SMILES IDX 36 35 37 36 38 37 39 38 40 39 3 40 2 41 1 42
REMARK H PARENT 13 14 32 33
ROOT
ATOM      1  N   UNL     1     -41.913  47.289  14.347  1.00  0.00    -0.255 NA
ATOM      2  N   UNL     1     -41.135  51.250  11.740  1.00  0.00    -0.192 NA
ATOM      3  C   UNL     1     -40.506  48.615  15.784  1.00  0.00     0.027 A 
ATOM      4  C   UNL     1     -40.464  49.619  14.808  1.00  0.00     0.068 A 
ATOM      5  C   UNL     1     -41.253  47.451  15.509  1.00  0.00     0.076 A 
ATOM      6  C   UNL     1     -39.829  48.751  17.009  1.00  0.00     0.042 A 
ATOM      7  C   UNL     1     -39.887  47.737  17.961  1.00  0.00     0.084 A 
ATOM      8  C   UNL     1     -40.621  46.588  17.696  1.00  0.00     0.144 A 
ATOM      9  C   UNL     1     -41.294  46.454  16.479  1.00  0.00     0.077 A 
ATOM     10  C   UNL     1     -41.145  49.456  13.609  1.00  0.00     0.094 A 
ATOM     11  C   UNL     1     -41.849  48.282  13.430  1.00  0.00     0.133 A 
ATOM     12  C   UNL     1     -41.139  50.446  12.577  1.00  0.00     0.103 C 
ENDROOT
BRANCH   4  13
ATOM     13  N   UNL     1     -39.730  50.814  15.028  1.00  0.00    -0.354 N 
ATOM     14  H   UNL     1     -40.319  51.589  15.318  1.00  0.00     0.167 HD
BRANCH  13  15
ATOM     15  C   UNL     1     -38.364  51.115  14.927  1.00  0.00     0.040 A 
ATOM     16  C   UNL     1     -36.547  52.708  15.091  1.00  0.00     0.085 A 
ATOM     17  C   UNL     1     -37.905  52.409  15.191  1.00  0.00     0.050 A 
ATOM     18  C   UNL     1     -35.639  51.713  14.726  1.00  0.00     0.138 A 
ATOM     19  C   UNL     1     -36.090  50.421  14.460  1.00  0.00     0.050 A 
ATOM     20  C   UNL     1     -37.449  50.123  14.560  1.00  0.00     0.030 A 
ATOM     21  Cl  UNL     1     -36.015  54.315  15.425  1.00  0.00    -0.080 Cl
BRANCH  18  22
ATOM     22  O   UNL     1     -34.305  51.977  14.620  1.00  0.00    -0.486 OA
BRANCH  22  23
ATOM     23  C   UNL     1     -33.549  51.976  15.830  1.00  0.00     0.285 C 
BRANCH  23  24
ATOM     24  C   UNL     1     -32.183  51.422  15.551  1.00  0.00     0.078 A 
ATOM     25  N   UNL     1     -31.925  51.079  14.272  1.00  0.00    -0.258 NA
ATOM     26  C   UNL     1     -31.284  51.298  16.593  1.00  0.00     0.027 A 
ATOM     27  C   UNL     1     -30.693  50.582  14.028  1.00  0.00     0.111 A 
ATOM     28  C   UNL     1     -30.026  50.782  16.302  1.00  0.00     0.004 A 
ATOM     29  C   UNL     1     -29.717  50.415  14.996  1.00  0.00     0.020 A 
ENDBRANCH  23  24
ENDBRANCH  22  23
ENDBRANCH  18  22
ENDBRANCH  13  15
ENDBRANCH   4  13
BRANCH   7  30
ATOM     30  N   UNL     1     -39.207  47.889  19.172  1.00  0.00    -0.319 N 
ATOM     31  C   UNL     1     -39.743  48.192  20.430  1.00  0.00     0.248 C 
ATOM     32  O   UNL     1     -40.922  48.384  20.704  1.00  0.00    -0.270 OA
ATOM     33  H   UNL     1     -38.199  47.760  19.110  1.00  0.00     0.170 HD
BRANCH  31  34
ATOM     34  C   UNL     1     -38.681  48.269  21.477  1.00  0.00     0.068 C 
ATOM     35  C   UNL     1     -37.897  47.211  21.731  1.00  0.00    -0.006 C 
BRANCH  35  36
ATOM     36  C   UNL     1     -36.808  47.224  22.760  1.00  0.00     0.111 C 
BRANCH  36  37
ATOM     37  N   UNL     1     -35.834  46.164  22.523  1.00  0.00    -0.306 NA
ATOM     38  C   UNL     1     -34.702  46.670  21.748  1.00  0.00     0.105 C 
ATOM     39  C   UNL     1     -36.460  45.035  21.833  1.00  0.00     0.105 C 
ENDBRANCH  36  37
ENDBRANCH  35  36
ENDBRANCH  31  34
ENDBRANCH   7  30
BRANCH   8  40
ATOM     40  O   UNL     1     -40.696  45.578  18.608  1.00  0.00    -0.492 OA
BRANCH  40  41
ATOM     41  C   UNL     1     -41.994  45.234  19.088  1.00  0.00     0.226 C 
ATOM     42  C   UNL     1     -41.881  44.765  20.523  1.00  0.00     0.049 C 
ENDBRANCH  40  41
ENDBRANCH   8  40
TORSDOF 11
ENDMDL
MODEL 2
REMARK VINA RESULT:    -9.798      1.699      2.187
REMARK INTER + INTRA:         -17.811
REMARK INTER:                 -15.907
REMARK INTRA:                  -1.904
REMARK UNBOUND:                -1.713
REMARK SMILES CCOc1cc2ncc(C#N)c(Nc3ccc(OCc4ccccn4)c(Cl)c3)c2cc1NC(=O)/C=C/CN(C)C
REMARK SMILES IDX 7 1 11 2 29 3 12 4 6 5 30 6 31 7 4 8 5 9 9 10 8 11 10 12
REMARK SMILES IDX 13 13 14 15 26 16 28 17 17 18 16 19 15 20 27 21 18 22 19 23
REMARK SMILES IDX 20 24 25 25 21 26 24 27 22 28 23 29 32 30 33 31 34 32 35 34
REMARK SMILES IDX 36 35 37 36 38 37 39 38 40 39 3 40 2 41 1 42
REMARK H PARENT 13 14 32 33
ROOT
ATOM      1  N   UNL     1     -43.583  49.553  14.516  1.00  0.00    -0.255 NA
ATOM      2  N   UNL     1     -40.280  51.122  11.399  1.00  0.00    -0.192 NA
ATOM      3  C   UNL     1     -41.516  48.781  15.484  1.00  0.00     0.027 A 
ATOM      4  C   UNL     1     -40.810  49.355  14.419  1.00  0.00     0.068 A 
ATOM      5  C   UNL     1     -42.922  48.906  15.493  1.00  0.00     0.076 A 
ATOM      6  C   UNL     1     -40.857  48.099  16.521  1.00  0.00     0.042 A 
ATOM      7  C   UNL     1     -41.584  47.537  17.568  1.00  0.00     0.084 A 
ATOM      8  C   UNL     1     -42.968  47.656  17.583  1.00  0.00     0.144 A 
ATOM      9  C   UNL     1     -43.623  48.335  16.552  1.00  0.00     0.077 A 
ATOM     10  C   UNL     1     -41.489  50.024  13.410  1.00  0.00     0.094 A 
ATOM     11  C   UNL     1     -42.865  50.094  13.506  1.00  0.00     0.133 A 
ATOM     12  C   UNL     1     -40.822  50.630  12.300  1.00  0.00     0.103 C 
ENDROOT
BRANCH   4  13
ATOM     13  N   UNL     1     -39.395  49.264  14.355  1.00  0.00    -0.354 N 
ATOM     14  H   UNL     1     -39.077  48.481  13.790  1.00  0.00     0.167 HD
BRANCH  13  15
ATOM     15  C   UNL     1     -38.372  50.045  14.911  1.00  0.00     0.040 A 
ATOM     16  C   UNL     1     -37.541  52.193  15.661  1.00  0.00     0.085 A 
ATOM     17  C   UNL     1     -38.559  51.417  15.107  1.00  0.00     0.050 A 
ATOM     18  C   UNL     1     -36.330  51.602  16.022  1.00  0.00     0.138 A 
ATOM     19  C   UNL     1     -36.137  50.234  15.828  1.00  0.00     0.050 A 
ATOM     20  C   UNL     1     -37.155  49.458  15.274  1.00  0.00     0.030 A 
ATOM     21  Cl  UNL     1     -37.806  53.883  15.889  1.00  0.00    -0.080 Cl
BRANCH  18  22
ATOM     22  O   UNL     1     -35.318  52.336  16.565  1.00  0.00    -0.486 OA
BRANCH  22  23
ATOM     23  C   UNL     1     -34.502  53.080  15.662  1.00  0.00     0.285 C 
BRANCH  23  24
ATOM     24  C   UNL     1     -33.204  52.355  15.465  1.00  0.00     0.078 A 
ATOM     25  N   UNL     1     -32.897  52.011  14.198  1.00  0.00    -0.258 NA
ATOM     26  C   UNL     1     -32.412  52.086  16.565  1.00  0.00     0.027 A 
ATOM     27  C   UNL     1     -31.726  51.358  14.027  1.00  0.00     0.111 A 
ATOM     28  C   UNL     1     -31.215  51.413  16.350  1.00  0.00     0.004 A 
ATOM     29  C   UNL     1     -30.858  51.039  15.059  1.00  0.00     0.020 A 
ENDBRANCH  23  24
ENDBRANCH  22  23
ENDBRANCH  18  22
ENDBRANCH  13  15
ENDBRANCH   4  13
BRANCH   7  30
ATOM     30  N   UNL     1     -40.912  46.862  18.589  1.00  0.00    -0.319 N 
ATOM     31  C   UNL     1     -40.740  45.480  18.741  1.00  0.00     0.248 C 
ATOM     32  O   UNL     1     -41.153  44.597  17.998  1.00  0.00    -0.270 OA
ATOM     33  H   UNL     1     -40.504  47.466  19.299  1.00  0.00     0.170 HD
BRANCH  31  34
ATOM     34  C   UNL     1     -39.958  45.155  19.971  1.00  0.00     0.068 C 
ATOM     35  C   UNL     1     -38.754  45.706  20.178  1.00  0.00    -0.006 C 
BRANCH  35  36
ATOM     36  C   UNL     1     -37.922  45.430  21.395  1.00  0.00     0.111 C 
BRANCH  36  37
ATOM     37  N   UNL     1     -37.567  46.662  22.091  1.00  0.00    -0.306 NA
ATOM     38  C   UNL     1     -38.333  47.791  21.562  1.00  0.00     0.105 C 
ATOM     39  C   UNL     1     -36.132  46.923  21.977  1.00  0.00     0.105 C 
ENDBRANCH  36  37
ENDBRANCH  35  36
ENDBRANCH  31  34
ENDBRANCH   7  30
BRANCH   8  40
ATOM     40  O   UNL     1     -43.707  47.116  18.593  1.00  0.00    -0.492 OA
BRANCH  40  41
ATOM     41  C   UNL     1     -44.848  46.347  18.220  1.00  0.00     0.226 C 
ATOM     42  C   UNL     1     -44.609  44.899  18.594  1.00  0.00     0.049 C 
ENDBRANCH  40  41
ENDBRANCH   8  40
TORSDOF 11
ENDMDL
MODEL 3
REMARK VINA RESULT:    -8.792      2.052      2.451
REMARK INTER + INTRA:         -16.159
REMARK INTER:                 -15.040
REMARK INTRA:                  -1.119
REMARK UNBOUND:                -1.713
REMARK SMILES CCOc1cc2ncc(C#N)c(Nc3ccc(OCc4ccccn4)c(Cl)c3)c2cc1NC(=O)/C=C/CN(C)C
REMARK SMILES IDX 7 1 11 2 29 3 12 4 6 5 30 6 31 7 4 8 5 9 9 10 8 11 10 12
REMARK SMILES IDX 13 13 14 15 26 16 28 17 17 18 16 19 15 20 27 21 18 22 19 23
REMARK SMILES IDX 20 24 25 25 21 26 24 27 22 28 23 29 32 30 33 31 34 32 35 34
REMARK SMILES IDX 36 35 37 36 38 37 39 38 40 39 3 40 2 41 1 42
REMARK H PARENT 13 14 32 33
ROOT
ATOM      1  N   UNL     1     -42.466  48.051  13.232  1.00  0.00    -0.255 NA
ATOM      2  N   UNL     1     -40.063  51.849  11.531  1.00  0.00    -0.192 NA
ATOM      3  C   UNL     1     -41.311  48.877  15.179  1.00  0.00     0.027 A 
ATOM      4  C   UNL     1     -40.748  49.900  14.404  1.00  0.00     0.068 A 
ATOM      5  C   UNL     1     -42.176  47.962  14.544  1.00  0.00     0.076 A 
ATOM      6  C   UNL     1     -41.030  48.754  16.551  1.00  0.00     0.042 A 
ATOM      7  C   UNL     1     -41.602  47.727  17.297  1.00  0.00     0.084 A 
ATOM      8  C   UNL     1     -42.455  46.822  16.678  1.00  0.00     0.144 A 
ATOM      9  C   UNL     1     -42.734  46.946  15.314  1.00  0.00     0.077 A 
ATOM     10  C   UNL     1     -41.046  49.996  13.052  1.00  0.00     0.094 A 
ATOM     11  C   UNL     1     -41.903  49.054  12.520  1.00  0.00     0.133 A 
ATOM     12  C   UNL     1     -40.503  51.018  12.212  1.00  0.00     0.103 C 
ENDROOT
BRANCH   4  13
ATOM     13  N   UNL     1     -39.871  50.852  14.987  1.00  0.00    -0.354 N 
ATOM     14  H   UNL     1     -40.336  51.454  15.660  1.00  0.00     0.167 HD
BRANCH  13  15
ATOM     15  C   UNL     1     -38.503  51.105  14.813  1.00  0.00     0.040 A 
ATOM     16  C   UNL     1     -36.606  52.603  14.976  1.00  0.00     0.085 A 
ATOM     17  C   UNL     1     -37.967  52.352  15.149  1.00  0.00     0.050 A 
ATOM     18  C   UNL     1     -35.772  51.607  14.466  1.00  0.00     0.138 A 
ATOM     19  C   UNL     1     -36.301  50.361  14.128  1.00  0.00     0.050 A 
ATOM     20  C   UNL     1     -37.662  50.111  14.301  1.00  0.00     0.030 A 
ATOM     21  Cl  UNL     1     -35.979  54.153  15.402  1.00  0.00    -0.080 Cl
BRANCH  18  22
ATOM     22  O   UNL     1     -34.438  51.824  14.287  1.00  0.00    -0.486 OA
BRANCH  22  23
ATOM     23  C   UNL     1     -33.624  51.843  15.458  1.00  0.00     0.285 C 
BRANCH  23  24
ATOM     24  C   UNL     1     -32.182  51.774  15.051  1.00  0.00     0.078 A 
ATOM     25  N   UNL     1     -31.843  52.444  13.931  1.00  0.00    -0.258 NA
ATOM     26  C   UNL     1     -31.300  51.046  15.826  1.00  0.00     0.027 A 
ATOM     27  C   UNL     1     -30.543  52.378  13.570  1.00  0.00     0.111 A 
ATOM     28  C   UNL     1     -29.970  51.002  15.423  1.00  0.00     0.004 A 
ATOM     29  C   UNL     1     -29.577  51.679  14.274  1.00  0.00     0.020 A 
ENDBRANCH  23  24
ENDBRANCH  22  23
ENDBRANCH  18  22
ENDBRANCH  13  15
ENDBRANCH   4  13
BRANCH   7  30
ATOM     30  N   UNL     1     -41.311  47.620  18.659  1.00  0.00    -0.319 N 
ATOM     31  C   UNL     1     -40.103  47.910  19.308  1.00  0.00     0.248 C 
ATOM     32  O   UNL     1     -39.067  48.315  18.794  1.00  0.00    -0.270 OA
ATOM     33  H   UNL     1     -42.084  47.289  19.232  1.00  0.00     0.170 HD
BRANCH  31  34
ATOM     34  C   UNL     1     -40.196  47.664  20.778  1.00  0.00     0.068 C 
ATOM     35  C   UNL     1     -40.590  46.471  21.245  1.00  0.00    -0.006 C 
BRANCH  35  36
ATOM     36  C   UNL     1     -40.695  46.155  22.706  1.00  0.00     0.111 C 
BRANCH  36  37
ATOM     37  N   UNL     1     -41.891  45.372  23.000  1.00  0.00    -0.306 NA
ATOM     38  C   UNL     1     -41.871  44.108  22.264  1.00  0.00     0.105 C 
ATOM     39  C   UNL     1     -43.098  46.133  22.672  1.00  0.00     0.105 C 
ENDBRANCH  36  37
ENDBRANCH  35  36
ENDBRANCH  31  34
ENDBRANCH   7  30
BRANCH   8  40
ATOM     40  O   UNL     1     -43.030  45.806  17.381  1.00  0.00    -0.492 OA
BRANCH  40  41
ATOM     41  C   UNL     1     -44.385  45.983  17.784  1.00  0.00     0.226 C 
ATOM     42  C   UNL     1     -44.482  45.804  19.284  1.00  0.00     0.049 C 
ENDBRANCH  40  41
ENDBRANCH   8  40
TORSDOF 11
ENDMDL
MODEL 4
REMARK VINA RESULT:    -8.720      3.455      7.358
REMARK INTER + INTRA:         -16.040
REMARK INTER:                 -14.337
REMARK INTRA:                  -1.702
REMARK UNBOUND:                -1.713
REMARK SMILES CCOc1cc2ncc(C#N)c(Nc3ccc(OCc4ccccn4)c(Cl)c3)c2cc1NC(=O)/C=C/CN(C)C
REMARK SMILES IDX 7 1 11 2 29 3 12 4 6 5 30 6 31 7 4 8 5 9 9 10 8 11 10 12
REMARK SMILES IDX 13 13 14 15 26 16 28 17 17 18 16 19 15 20 27 21 18 22 19 23
REMARK SMILES IDX 20 24 25 25 21 26 24 27 22 28 23 29 32 30 33 31 34 32 35 34
REMARK SMILES IDX 36 35 37 36 38 37 39 38 40 39 3 40 2 41 1 42
REMARK H PARENT 13 14 32 33
ROOT
ATOM      1  N   UNL     1     -42.848  45.782  19.742  1.00  0.00    -0.255 NA
ATOM      2  N   UNL     1     -38.066  45.332  19.853  1.00  0.00    -0.192 NA
ATOM      3  C   UNL     1     -42.175  46.632  17.591  1.00  0.00     0.027 A 
ATOM      4  C   UNL     1     -40.835  46.383  17.917  1.00  0.00     0.068 A 
ATOM      5  C   UNL     1     -43.163  46.313  18.545  1.00  0.00     0.076 A 
ATOM      6  C   UNL     1     -42.538  47.185  16.350  1.00  0.00     0.042 A 
ATOM      7  C   UNL     1     -43.877  47.424  16.051  1.00  0.00     0.084 A 
ATOM      8  C   UNL     1     -44.855  47.111  16.987  1.00  0.00     0.144 A 
ATOM      9  C   UNL     1     -44.493  46.561  18.220  1.00  0.00     0.077 A 
ATOM     10  C   UNL     1     -40.508  45.835  19.150  1.00  0.00     0.094 A 
ATOM     11  C   UNL     1     -41.544  45.555  20.019  1.00  0.00     0.133 A 
ATOM     12  C   UNL     1     -39.160  45.558  19.538  1.00  0.00     0.103 C 
ENDROOT
BRANCH   4  13
ATOM     13  N   UNL     1     -39.797  46.683  16.998  1.00  0.00    -0.354 N 
ATOM     14  H   UNL     1     -39.470  45.864  16.494  1.00  0.00     0.167 HD
BRANCH  13  15
ATOM     15  C   UNL     1     -39.154  47.882  16.657  1.00  0.00     0.040 A 
ATOM     16  C   UNL     1     -38.995  49.858  15.264  1.00  0.00     0.085 A 
ATOM     17  C   UNL     1     -39.635  48.665  15.602  1.00  0.00     0.050 A 
ATOM     18  C   UNL     1     -37.871  50.274  15.978  1.00  0.00     0.138 A 
ATOM     19  C   UNL     1     -37.387  49.497  17.030  1.00  0.00     0.050 A 
ATOM     20  C   UNL     1     -38.026  48.304  17.368  1.00  0.00     0.030 A 
ATOM     21  Cl  UNL     1     -39.616  50.800  13.959  1.00  0.00    -0.080 Cl
BRANCH  18  22
ATOM     22  O   UNL     1     -37.227  51.435  15.670  1.00  0.00    -0.486 OA
BRANCH  22  23
ATOM     23  C   UNL     1     -36.258  51.378  14.624  1.00  0.00     0.285 C 
BRANCH  23  24
ATOM     24  C   UNL     1     -34.927  51.806  15.168  1.00  0.00     0.078 A 
ATOM     25  N   UNL     1     -33.889  51.772  14.308  1.00  0.00    -0.258 NA
ATOM     26  C   UNL     1     -34.838  52.203  16.489  1.00  0.00     0.027 A 
ATOM     27  C   UNL     1     -32.693  52.158  14.803  1.00  0.00     0.111 A 
ATOM     28  C   UNL     1     -33.591  52.594  16.962  1.00  0.00     0.004 A 
ATOM     29  C   UNL     1     -32.493  52.574  16.109  1.00  0.00     0.020 A 
ENDBRANCH  23  24
ENDBRANCH  22  23
ENDBRANCH  18  22
ENDBRANCH  13  15
ENDBRANCH   4  13
BRANCH   7  30
ATOM     30  N   UNL     1     -44.220  47.974  14.814  1.00  0.00    -0.319 N 
ATOM     31  C   UNL     1     -43.686  49.115  14.200  1.00  0.00     0.248 C 
ATOM     32  O   UNL     1     -42.810  49.850  14.641  1.00  0.00    -0.270 OA
ATOM     33  H   UNL     1     -44.948  47.469  14.313  1.00  0.00     0.170 HD
BRANCH  31  34
ATOM     34  C   UNL     1     -44.322  49.374  12.874  1.00  0.00     0.068 C 
ATOM     35  C   UNL     1     -45.644  49.221  12.712  1.00  0.00    -0.006 C 
BRANCH  35  36
ATOM     36  C   UNL     1     -46.346  49.473  11.412  1.00  0.00     0.111 C 
BRANCH  36  37
ATOM     37  N   UNL     1     -47.682  48.887  11.402  1.00  0.00    -0.306 NA
ATOM     38  C   UNL     1     -48.476  49.400  12.518  1.00  0.00     0.105 C 
ATOM     39  C   UNL     1     -47.604  47.427  11.461  1.00  0.00     0.105 C 
ENDBRANCH  36  37
ENDBRANCH  35  36
ENDBRANCH  31  34
ENDBRANCH   7  30
BRANCH   8  40
ATOM     40  O   UNL     1     -46.174  47.334  16.724  1.00  0.00    -0.492 OA
BRANCH  40  41
ATOM     41  C   UNL     1     -46.989  46.188  16.491  1.00  0.00     0.226 C 
ATOM     42  C   UNL     1     -47.229  46.049  15.002  1.00  0.00     0.049 C 
ENDBRANCH  40  41
ENDBRANCH   8  40
TORSDOF 11
ENDMDL
MODEL 5
REMARK VINA RESULT:    -8.482      2.158      2.964
REMARK INTER + INTRA:         -15.650
REMARK INTER:                 -14.387
REMARK INTRA:                  -1.263
REMARK UNBOUND:                -1.713
REMARK SMILES CCOc1cc2ncc(C#N)c(Nc3ccc(OCc4ccccn4)c(Cl)c3)c2cc1NC(=O)/C=C/CN(C)C
REMARK SMILES IDX 7 1 11 2 29 3 12 4 6 5 30 6 31 7 4 8 5 9 9 10 8 11 10 12
REMARK SMILES IDX 13 13 14 15 26 16 28 17 17 18 16 19 15 20 27 21 18 22 19 23
REMARK SMILES IDX 20 24 25 25 21 26 24 27 22 28 23 29 32 30 33 31 34 32 35 34
REMARK SMILES IDX 36 35 37 36 38 37 39 38 40 39 3 40 2 41 1 42
REMARK H PARENT 13 14 32 33
ROOT
ATOM      1  N   UNL     1     -44.837  46.510  15.696  1.00  0.00    -0.255 NA
ATOM      2  N   UNL     1     -44.181  50.050  12.515  1.00  0.00    -0.192 NA
ATOM      3  C   UNL     1     -43.038  47.784  16.668  1.00  0.00     0.027 A 
ATOM      4  C   UNL     1     -43.086  48.669  15.583  1.00  0.00     0.068 A 
ATOM      5  C   UNL     1     -43.944  46.703  16.685  1.00  0.00     0.076 A 
ATOM      6  C   UNL     1     -42.118  47.956  17.717  1.00  0.00     0.042 A 
ATOM      7  C   UNL     1     -42.091  47.061  18.783  1.00  0.00     0.084 A 
ATOM      8  C   UNL     1     -42.981  45.994  18.806  1.00  0.00     0.144 A 
ATOM      9  C   UNL     1     -43.895  45.824  17.763  1.00  0.00     0.077 A 
ATOM     10  C   UNL     1     -44.006  48.473  14.563  1.00  0.00     0.094 A 
ATOM     11  C   UNL     1     -44.852  47.387  14.667  1.00  0.00     0.133 A 
ATOM     12  C   UNL     1     -44.103  49.343  13.432  1.00  0.00     0.103 C 
ENDROOT
BRANCH   4  13
ATOM     13  N   UNL     1     -42.200  49.776  15.510  1.00  0.00    -0.354 N 
ATOM     14  H   UNL     1     -42.671  50.665  15.647  1.00  0.00     0.167 HD
BRANCH  13  15
ATOM     15  C   UNL     1     -40.817  49.866  15.296  1.00  0.00     0.040 A 
ATOM     16  C   UNL     1     -38.551  49.303  15.938  1.00  0.00     0.085 A 
ATOM     17  C   UNL     1     -39.926  49.212  16.153  1.00  0.00     0.050 A 
ATOM     18  C   UNL     1     -38.059  50.048  14.866  1.00  0.00     0.138 A 
ATOM     19  C   UNL     1     -38.943  50.702  14.009  1.00  0.00     0.050 A 
ATOM     20  C   UNL     1     -40.318  50.612  14.223  1.00  0.00     0.030 A 
ATOM     21  Cl  UNL     1     -37.480  48.483  17.014  1.00  0.00    -0.080 Cl
BRANCH  18  22
ATOM     22  O   UNL     1     -36.719  50.153  14.633  1.00  0.00    -0.486 OA
BRANCH  22  23
ATOM     23  C   UNL     1     -36.241  51.414  14.169  1.00  0.00     0.285 C 
BRANCH  23  24
ATOM     24  C   UNL     1     -35.012  51.785  14.944  1.00  0.00     0.078 A 
ATOM     25  N   UNL     1     -33.855  51.820  14.252  1.00  0.00    -0.258 NA
ATOM     26  C   UNL     1     -35.128  52.067  16.292  1.00  0.00     0.027 A 
ATOM     27  C   UNL     1     -32.751  52.155  14.955  1.00  0.00     0.111 A 
ATOM     28  C   UNL     1     -33.971  52.409  16.982  1.00  0.00     0.004 A 
ATOM     29  C   UNL     1     -32.755  52.456  16.307  1.00  0.00     0.020 A 
ENDBRANCH  23  24
ENDBRANCH  22  23
ENDBRANCH  18  22
ENDBRANCH  13  15
ENDBRANCH   4  13
BRANCH   7  30
ATOM     30  N   UNL     1     -41.169  47.247  19.816  1.00  0.00    -0.319 N 
ATOM     31  C   UNL     1     -39.830  46.838  19.861  1.00  0.00     0.248 C 
ATOM     32  O   UNL     1     -39.213  46.232  18.993  1.00  0.00    -0.270 OA
ATOM     33  H   UNL     1     -41.536  47.743  20.626  1.00  0.00     0.170 HD
BRANCH  31  34
ATOM     34  C   UNL     1     -39.179  47.228  21.147  1.00  0.00     0.068 C 
ATOM     35  C   UNL     1     -37.880  46.974  21.357  1.00  0.00    -0.006 C 
BRANCH  35  36
ATOM     36  C   UNL     1     -37.163  47.347  22.620  1.00  0.00     0.111 C 
BRANCH  36  37
ATOM     37  N   UNL     1     -36.058  46.436  22.898  1.00  0.00    -0.306 NA
ATOM     38  C   UNL     1     -35.038  46.531  21.854  1.00  0.00     0.105 C 
ATOM     39  C   UNL     1     -36.543  45.060  23.012  1.00  0.00     0.105 C 
ENDBRANCH  36  37
ENDBRANCH  35  36
ENDBRANCH  31  34
ENDBRANCH   7  30
BRANCH   8  40
ATOM     40  O   UNL     1     -42.978  45.100  19.835  1.00  0.00    -0.492 OA
BRANCH  40  41
ATOM     41  C   UNL     1     -44.140  45.060  20.660  1.00  0.00     0.226 C 
ATOM     42  C   UNL     1     -44.047  46.161  21.695  1.00  0.00     0.049 C 
ENDBRANCH  40  41
ENDBRANCH   8  40
TORSDOF 11
ENDMDL
MODEL 6
REMARK VINA RESULT:    -8.415      2.443      3.651
REMARK INTER + INTRA:         -15.539
REMARK INTER:                 -14.090
REMARK INTRA:                  -1.450
REMARK UNBOUND:                -1.713
REMARK SMILES CCOc1cc2ncc(C#N)c(Nc3ccc(OCc4ccccn4)c(Cl)c3)c2cc1NC(=O)/C=C/CN(C)C
REMARK SMILES IDX 7 1 11 2 29 3 12 4 6 5 30 6 31 7 4 8 5 9 9 10 8 11 10 12
REMARK SMILES IDX 13 13 14 15 26 16 28 17 17 18 16 19 15 20 27 21 18 22 19 23
REMARK SMILES IDX 20 24 25 25 21 26 24 27 22 28 23 29 32 30 33 31 34 32 35 34
REMARK SMILES IDX 36 35 37 36 38 37 39 38 40 39 3 40 2 41 1 42
REMARK H PARENT 13 14 32 33
ROOT
ATOM      1  N   UNL     1     -45.944  47.489  16.421  1.00  0.00    -0.255 NA
ATOM      2  N   UNL     1     -44.925  49.430  12.146  1.00  0.00    -0.192 NA
ATOM      3  C   UNL     1     -43.554  47.231  16.266  1.00  0.00     0.027 A 
ATOM      4  C   UNL     1     -43.574  47.846  15.007  1.00  0.00     0.068 A 
ATOM      5  C   UNL     1     -44.778  47.070  16.948  1.00  0.00     0.076 A 
ATOM      6  C   UNL     1     -42.354  46.781  16.845  1.00  0.00     0.042 A 
ATOM      7  C   UNL     1     -42.361  46.172  18.097  1.00  0.00     0.084 A 
ATOM      8  C   UNL     1     -43.564  46.012  18.774  1.00  0.00     0.144 A 
ATOM      9  C   UNL     1     -44.756  46.459  18.198  1.00  0.00     0.077 A 
ATOM     10  C   UNL     1     -44.775  48.280  14.462  1.00  0.00     0.094 A 
ATOM     11  C   UNL     1     -45.922  48.079  15.204  1.00  0.00     0.133 A 
ATOM     12  C   UNL     1     -44.858  48.914  13.184  1.00  0.00     0.103 C 
ENDROOT
BRANCH   4  13
ATOM     13  N   UNL     1     -42.375  48.036  14.273  1.00  0.00    -0.354 N 
ATOM     14  H   UNL     1     -42.299  47.411  13.475  1.00  0.00     0.167 HD
BRANCH  13  15
ATOM     15  C   UNL     1     -41.296  48.916  14.438  1.00  0.00     0.040 A 
ATOM     16  C   UNL     1     -39.273  49.565  15.602  1.00  0.00     0.085 A 
ATOM     17  C   UNL     1     -40.345  48.688  15.438  1.00  0.00     0.050 A 
ATOM     18  C   UNL     1     -39.145  50.675  14.767  1.00  0.00     0.138 A 
ATOM     19  C   UNL     1     -40.090  50.909  13.768  1.00  0.00     0.050 A 
ATOM     20  C   UNL     1     -41.163  50.032  13.605  1.00  0.00     0.030 A 
ATOM     21  Cl  UNL     1     -38.118  49.252  16.845  1.00  0.00    -0.080 Cl
BRANCH  18  22
ATOM     22  O   UNL     1     -38.107  51.548  14.904  1.00  0.00    -0.486 OA
BRANCH  22  23
ATOM     23  C   UNL     1     -36.926  51.270  14.154  1.00  0.00     0.285 C 
BRANCH  23  24
ATOM     24  C   UNL     1     -35.766  51.977  14.790  1.00  0.00     0.078 A 
ATOM     25  N   UNL     1     -34.598  51.303  14.824  1.00  0.00    -0.258 NA
ATOM     26  C   UNL     1     -35.950  53.251  15.293  1.00  0.00     0.027 A 
ATOM     27  C   UNL     1     -33.557  51.945  15.397  1.00  0.00     0.111 A 
ATOM     28  C   UNL     1     -34.855  53.880  15.875  1.00  0.00     0.004 A 
ATOM     29  C   UNL     1     -33.632  53.220  15.932  1.00  0.00     0.020 A 
ENDBRANCH  23  24
ENDBRANCH  22  23
ENDBRANCH  18  22
ENDBRANCH  13  15
ENDBRANCH   4  13
BRANCH   7  30
ATOM     30  N   UNL     1     -41.160  45.732  18.656  1.00  0.00    -0.319 N 
ATOM     31  C   UNL     1     -40.291  46.437  19.499  1.00  0.00     0.248 C 
ATOM     32  O   UNL     1     -40.426  47.586  19.905  1.00  0.00    -0.270 OA
ATOM     33  H   UNL     1     -40.903  44.778  18.409  1.00  0.00     0.170 HD
BRANCH  31  34
ATOM     34  C   UNL     1     -39.107  45.612  19.883  1.00  0.00     0.068 C 
ATOM     35  C   UNL     1     -38.231  46.061  20.793  1.00  0.00    -0.006 C 
BRANCH  35  36
ATOM     36  C   UNL     1     -37.028  45.280  21.230  1.00  0.00     0.111 C 
BRANCH  36  37
ATOM     37  N   UNL     1     -36.272  45.990  22.256  1.00  0.00    -0.306 NA
ATOM     38  C   UNL     1     -36.936  47.246  22.607  1.00  0.00     0.105 C 
ATOM     39  C   UNL     1     -34.905  46.248  21.802  1.00  0.00     0.105 C 
ENDBRANCH  36  37
ENDBRANCH  35  36
ENDBRANCH  31  34
ENDBRANCH   7  30
BRANCH   8  40
ATOM     40  O   UNL     1     -43.604  45.418  20.001  1.00  0.00    -0.492 OA
BRANCH  40  41
ATOM     41  C   UNL     1     -44.195  46.165  21.061  1.00  0.00     0.226 C 
ATOM     42  C   UNL     1     -43.118  46.548  22.054  1.00  0.00     0.049 C 
ENDBRANCH  40  41
ENDBRANCH   8  40
TORSDOF 11
ENDMDL
MODEL 7
REMARK VINA RESULT:    -8.307      3.209      4.303
REMARK INTER + INTRA:         -15.361
REMARK INTER:                 -14.545
REMARK INTRA:                  -0.816
REMARK UNBOUND:                -1.713
REMARK SMILES CCOc1cc2ncc(C#N)c(Nc3ccc(OCc4ccccn4)c(Cl)c3)c2cc1NC(=O)/C=C/CN(C)C
REMARK SMILES IDX 7 1 11 2 29 3 12 4 6 5 30 6 31 7 4 8 5 9 9 10 8 11 10 12
REMARK SMILES IDX 13 13 14 15 26 16 28 17 17 18 16 19 15 20 27 21 18 22 19 23
REMARK SMILES IDX 20 24 25 25 21 26 24 27 22 28 23 29 32 30 33 31 34 32 35 34
REMARK SMILES IDX 36 35 37 36 38 37 39 38 40 39 3 40 2 41 1 42
REMARK H PARENT 13 14 32 33
ROOT
ATOM      1  N   UNL     1     -44.477  49.578  13.395  1.00  0.00    -0.255 NA
ATOM      2  N   UNL     1     -40.384  51.095  11.387  1.00  0.00    -0.192 NA
ATOM      3  C   UNL     1     -42.787  48.501  14.732  1.00  0.00     0.027 A 
ATOM      4  C   UNL     1     -41.792  49.101  13.948  1.00  0.00     0.068 A 
ATOM      5  C   UNL     1     -44.135  48.770  14.416  1.00  0.00     0.076 A 
ATOM      6  C   UNL     1     -42.465  47.653  15.806  1.00  0.00     0.042 A 
ATOM      7  C   UNL     1     -43.473  47.069  16.568  1.00  0.00     0.084 A 
ATOM      8  C   UNL     1     -44.803  47.330  16.262  1.00  0.00     0.144 A 
ATOM      9  C   UNL     1     -45.122  48.174  15.195  1.00  0.00     0.077 A 
ATOM     10  C   UNL     1     -42.142  49.935  12.895  1.00  0.00     0.094 A 
ATOM     11  C   UNL     1     -43.487  50.139  12.663  1.00  0.00     0.133 A 
ATOM     12  C   UNL     1     -41.172  50.575  12.062  1.00  0.00     0.103 C 
ENDROOT
BRANCH   4  13
ATOM     13  N   UNL     1     -40.418  48.868  14.217  1.00  0.00    -0.354 N 
ATOM     14  H   UNL     1     -40.109  47.949  13.914  1.00  0.00     0.167 HD
BRANCH  13  15
ATOM     15  C   UNL     1     -39.424  49.662  14.808  1.00  0.00     0.040 A 
ATOM     16  C   UNL     1     -37.827  50.049  16.587  1.00  0.00     0.085 A 
ATOM     17  C   UNL     1     -38.815  49.259  16.001  1.00  0.00     0.050 A 
ATOM     18  C   UNL     1     -37.442  51.247  15.985  1.00  0.00     0.138 A 
ATOM     19  C   UNL     1     -38.046  51.655  14.796  1.00  0.00     0.050 A 
ATOM     20  C   UNL     1     -39.035  50.865  14.209  1.00  0.00     0.030 A 
ATOM     21  Cl  UNL     1     -37.095  49.520  18.058  1.00  0.00    -0.080 Cl
BRANCH  18  22
ATOM     22  O   UNL     1     -36.478  52.038  16.536  1.00  0.00    -0.486 OA
BRANCH  22  23
ATOM     23  C   UNL     1     -35.745  52.878  15.646  1.00  0.00     0.285 C 
BRANCH  23  24
ATOM     24  C   UNL     1     -34.304  52.460  15.656  1.00  0.00     0.078 A 
ATOM     25  N   UNL     1     -33.781  52.089  14.470  1.00  0.00    -0.258 NA
ATOM     26  C   UNL     1     -33.608  52.479  16.849  1.00  0.00     0.027 A 
ATOM     27  C   UNL     1     -32.483  51.714  14.485  1.00  0.00     0.111 A 
ATOM     28  C   UNL     1     -32.274  52.087  16.824  1.00  0.00     0.004 A 
ATOM     29  C   UNL     1     -31.694  51.696  15.623  1.00  0.00     0.020 A 
ENDBRANCH  23  24
ENDBRANCH  22  23
ENDBRANCH  18  22
ENDBRANCH  13  15
ENDBRANCH   4  13
BRANCH   7  30
ATOM     30  N   UNL     1     -43.134  46.228  17.631  1.00  0.00    -0.319 N 
ATOM     31  C   UNL     1     -42.645  46.588  18.893  1.00  0.00     0.248 C 
ATOM     32  O   UNL     1     -42.420  47.721  19.303  1.00  0.00    -0.270 OA
ATOM     33  H   UNL     1     -43.266  45.236  17.444  1.00  0.00     0.170 HD
BRANCH  31  34
ATOM     34  C   UNL     1     -42.404  45.390  19.752  1.00  0.00     0.068 C 
ATOM     35  C   UNL     1     -42.553  44.154  19.254  1.00  0.00    -0.006 C 
BRANCH  35  36
ATOM     36  C   UNL     1     -42.318  42.911  20.057  1.00  0.00     0.111 C 
BRANCH  36  37
ATOM     37  N   UNL     1     -43.328  42.745  21.097  1.00  0.00    -0.306 NA
ATOM     38  C   UNL     1     -42.713  42.286  22.342  1.00  0.00     0.105 C 
ATOM     39  C   UNL     1     -44.363  41.806  20.664  1.00  0.00     0.105 C 
ENDBRANCH  36  37
ENDBRANCH  35  36
ENDBRANCH  31  34
ENDBRANCH   7  30
BRANCH   8  40
ATOM     40  O   UNL     1     -45.812  46.773  16.990  1.00  0.00    -0.492 OA
BRANCH  40  41
ATOM     41  C   UNL     1     -47.142  47.159  16.652  1.00  0.00     0.226 C 
ATOM     42  C   UNL     1     -47.784  46.057  15.836  1.00  0.00     0.049 C 
ENDBRANCH  40  41
ENDBRANCH   8  40
TORSDOF 11
ENDMDL
MODEL 8
REMARK VINA RESULT:    -8.232      5.699     10.099
REMARK INTER + INTRA:         -15.239
REMARK INTER:                 -13.407
REMARK INTRA:                  -1.832
REMARK UNBOUND:                -1.713
REMARK SMILES CCOc1cc2ncc(C#N)c(Nc3ccc(OCc4ccccn4)c(Cl)c3)c2cc1NC(=O)/C=C/CN(C)C
REMARK SMILES IDX 7 1 11 2 29 3 12 4 6 5 30 6 31 7 4 8 5 9 9 10 8 11 10 12
REMARK SMILES IDX 13 13 14 15 26 16 28 17 17 18 16 19 15 20 27 21 18 22 19 23
REMARK SMILES IDX 20 24 25 25 21 26 24 27 22 28 23 29 32 30 33 31 34 32 35 34
REMARK SMILES IDX 36 35 37 36 38 37 39 38 40 39 3 40 2 41 1 42
REMARK H PARENT 13 14 32 33
ROOT
ATOM      1  N   UNL     1     -46.310  45.446  14.674  1.00  0.00    -0.255 NA
ATOM      2  N   UNL     1     -43.334  46.717  18.225  1.00  0.00    -0.192 NA
ATOM      3  C   UNL     1     -45.621  47.664  14.034  1.00  0.00     0.027 A 
ATOM      4  C   UNL     1     -44.825  47.743  15.185  1.00  0.00     0.068 A 
ATOM      5  C   UNL     1     -46.357  46.481  13.815  1.00  0.00     0.076 A 
ATOM      6  C   UNL     1     -45.693  48.726  13.116  1.00  0.00     0.042 A 
ATOM      7  C   UNL     1     -46.493  48.622  11.981  1.00  0.00     0.084 A 
ATOM      8  C   UNL     1     -47.220  47.459  11.759  1.00  0.00     0.144 A 
ATOM      9  C   UNL     1     -47.148  46.404  12.672  1.00  0.00     0.077 A 
ATOM     10  C   UNL     1     -44.774  46.677  16.072  1.00  0.00     0.094 A 
ATOM     11  C   UNL     1     -45.529  45.561  15.772  1.00  0.00     0.133 A 
ATOM     12  C   UNL     1     -43.979  46.699  17.261  1.00  0.00     0.103 C 
ENDROOT
BRANCH   4  13
ATOM     13  N   UNL     1     -44.061  48.907  15.459  1.00  0.00    -0.354 N 
ATOM     14  H   UNL     1     -44.576  49.596  15.999  1.00  0.00     0.167 HD
BRANCH  13  15
ATOM     15  C   UNL     1     -42.746  49.272  15.136  1.00  0.00     0.040 A 
ATOM     16  C   UNL     1     -41.128  50.092  13.530  1.00  0.00     0.085 A 
ATOM     17  C   UNL     1     -42.437  49.729  13.851  1.00  0.00     0.050 A 
ATOM     18  C   UNL     1     -40.122  49.998  14.492  1.00  0.00     0.138 A 
ATOM     19  C   UNL     1     -40.425  49.542  15.775  1.00  0.00     0.050 A 
ATOM     20  C   UNL     1     -41.733  49.179  16.096  1.00  0.00     0.030 A 
ATOM     21  Cl  UNL     1     -40.782  50.653  11.936  1.00  0.00    -0.080 Cl
BRANCH  18  22
ATOM     22  O   UNL     1     -38.835  50.346  14.206  1.00  0.00    -0.486 OA
BRANCH  22  23
ATOM     23  C   UNL     1     -37.840  49.980  15.160  1.00  0.00     0.285 C 
BRANCH  23  24
ATOM     24  C   UNL     1     -36.870  51.114  15.312  1.00  0.00     0.078 A 
ATOM     25  N   UNL     1     -35.564  50.781  15.378  1.00  0.00    -0.258 NA
ATOM     26  C   UNL     1     -37.352  52.407  15.373  1.00  0.00     0.027 A 
ATOM     27  C   UNL     1     -34.695  51.806  15.515  1.00  0.00     0.111 A 
ATOM     28  C   UNL     1     -36.428  53.436  15.513  1.00  0.00     0.004 A 
ATOM     29  C   UNL     1     -35.071  53.137  15.586  1.00  0.00     0.020 A 
ENDBRANCH  23  24
ENDBRANCH  22  23
ENDBRANCH  18  22
ENDBRANCH  13  15
ENDBRANCH   4  13
BRANCH   7  30
ATOM     30  N   UNL     1     -46.553  49.688  11.080  1.00  0.00    -0.319 N 
ATOM     31  C   UNL     1     -47.363  50.828  11.146  1.00  0.00     0.248 C 
ATOM     32  O   UNL     1     -48.181  51.105  12.017  1.00  0.00    -0.270 OA
ATOM     33  H   UNL     1     -45.922  49.606  10.285  1.00  0.00     0.170 HD
BRANCH  31  34
ATOM     34  C   UNL     1     -47.130  51.737   9.985  1.00  0.00     0.068 C 
ATOM     35  C   UNL     1     -48.131  52.041   9.146  1.00  0.00    -0.006 C 
BRANCH  35  36
ATOM     36  C   UNL     1     -47.968  52.952   7.968  1.00  0.00     0.111 C 
BRANCH  36  37
ATOM     37  N   UNL     1     -48.929  52.645   6.914  1.00  0.00    -0.306 NA
ATOM     38  C   UNL     1     -50.070  53.558   6.977  1.00  0.00     0.105 C 
ATOM     39  C   UNL     1     -49.382  51.257   7.020  1.00  0.00     0.105 C 
ENDBRANCH  36  37
ENDBRANCH  35  36
ENDBRANCH  31  34
ENDBRANCH   7  30
BRANCH   8  40
ATOM     40  O   UNL     1     -48.013  47.328  10.657  1.00  0.00    -0.492 OA
BRANCH  40  41
ATOM     41  C   UNL     1     -49.421  47.307  10.873  1.00  0.00     0.226 C 
ATOM     42  C   UNL     1     -50.031  48.552  10.265  1.00  0.00     0.049 C 
ENDBRANCH  40  41
ENDBRANCH   8  40
TORSDOF 11
ENDMDL
MODEL 9
REMARK VINA RESULT:    -8.225      3.440      7.343
REMARK INTER + INTRA:         -15.228
REMARK INTER:                 -13.601
REMARK INTRA:                  -1.627
REMARK UNBOUND:                -1.713
REMARK SMILES CCOc1cc2ncc(C#N)c(Nc3ccc(OCc4ccccn4)c(Cl)c3)c2cc1NC(=O)/C=C/CN(C)C
REMARK SMILES IDX 7 1 11 2 29 3 12 4 6 5 30 6 31 7 4 8 5 9 9 10 8 11 10 12
REMARK SMILES IDX 13 13 14 15 26 16 28 17 17 18 16 19 15 20 27 21 18 22 19 23
REMARK SMILES IDX 20 24 25 25 21 26 24 27 22 28 23 29 32 30 33 31 34 32 35 34
REMARK SMILES IDX 36 35 37 36 38 37 39 38 40 39 3 40 2 41 1 42
REMARK H PARENT 13 14 32 33
ROOT
ATOM      1  N   UNL     1     -41.920  46.868  21.685  1.00  0.00    -0.255 NA
ATOM      2  N   UNL     1     -37.192  47.563  21.186  1.00  0.00    -0.192 NA
ATOM      3  C   UNL     1     -41.612  46.795  19.297  1.00  0.00     0.027 A 
ATOM      4  C   UNL     1     -40.239  47.014  19.473  1.00  0.00     0.068 A 
ATOM      5  C   UNL     1     -42.427  46.728  20.446  1.00  0.00     0.076 A 
ATOM      6  C   UNL     1     -42.174  46.644  18.017  1.00  0.00     0.042 A 
ATOM      7  C   UNL     1     -43.542  46.428  17.871  1.00  0.00     0.084 A 
ATOM      8  C   UNL     1     -44.350  46.361  18.999  1.00  0.00     0.144 A 
ATOM      9  C   UNL     1     -43.790  46.510  20.270  1.00  0.00     0.077 A 
ATOM     10  C   UNL     1     -39.713  47.158  20.749  1.00  0.00     0.094 A 
ATOM     11  C   UNL     1     -40.590  47.077  21.813  1.00  0.00     0.133 A 
ATOM     12  C   UNL     1     -38.322  47.382  20.990  1.00  0.00     0.103 C 
ENDROOT
BRANCH   4  13
ATOM     13  N   UNL     1     -39.368  47.090  18.355  1.00  0.00    -0.354 N 
ATOM     14  H   UNL     1     -38.974  46.189  18.102  1.00  0.00     0.167 HD
BRANCH  13  15
ATOM     15  C   UNL     1     -38.963  48.161  17.545  1.00  0.00     0.040 A 
ATOM     16  C   UNL     1     -39.375  49.669  15.694  1.00  0.00     0.085 A 
ATOM     17  C   UNL     1     -39.779  48.603  16.499  1.00  0.00     0.050 A 
ATOM     18  C   UNL     1     -38.152  50.297  15.930  1.00  0.00     0.138 A 
ATOM     19  C   UNL     1     -37.333  49.860  16.971  1.00  0.00     0.050 A 
ATOM     20  C   UNL     1     -37.737  48.795  17.775  1.00  0.00     0.030 A 
ATOM     21  Cl  UNL     1     -40.408  50.189  14.414  1.00  0.00    -0.080 Cl
BRANCH  18  22
ATOM     22  O   UNL     1     -37.733  51.341  15.159  1.00  0.00    -0.486 OA
BRANCH  22  23
ATOM     23  C   UNL     1     -36.617  51.104  14.303  1.00  0.00     0.285 C 
BRANCH  23  24
ATOM     24  C   UNL     1     -35.456  51.928  14.776  1.00  0.00     0.078 A 
ATOM     25  N   UNL     1     -34.232  51.517  14.386  1.00  0.00    -0.258 NA
ATOM     26  C   UNL     1     -35.697  53.038  15.563  1.00  0.00     0.027 A 
ATOM     27  C   UNL     1     -33.190  52.264  14.814  1.00  0.00     0.111 A 
ATOM     28  C   UNL     1     -34.600  53.781  15.984  1.00  0.00     0.004 A 
ATOM     29  C   UNL     1     -33.319  53.393  15.606  1.00  0.00     0.020 A 
ENDBRANCH  23  24
ENDBRANCH  22  23
ENDBRANCH  18  22
ENDBRANCH  13  15
ENDBRANCH   4  13
BRANCH   7  30
ATOM     30  N   UNL     1     -44.083  46.281  16.592  1.00  0.00    -0.319 N 
ATOM     31  C   UNL     1     -44.300  47.275  15.628  1.00  0.00     0.248 C 
ATOM     32  O   UNL     1     -44.053  48.471  15.731  1.00  0.00    -0.270 OA
ATOM     33  H   UNL     1     -44.346  45.328  16.350  1.00  0.00     0.170 HD
BRANCH  31  34
ATOM     34  C   UNL     1     -44.901  46.711  14.382  1.00  0.00     0.068 C 
ATOM     35  C   UNL     1     -46.027  45.986  14.438  1.00  0.00    -0.006 C 
BRANCH  35  36
ATOM     36  C   UNL     1     -46.687  45.400  13.226  1.00  0.00     0.111 C 
BRANCH  36  37
ATOM     37  N   UNL     1     -47.889  46.141  12.859  1.00  0.00    -0.306 NA
ATOM     38  C   UNL     1     -49.033  45.236  12.739  1.00  0.00     0.105 C 
ATOM     39  C   UNL     1     -47.683  46.870  11.607  1.00  0.00     0.105 C 
ENDBRANCH  36  37
ENDBRANCH  35  36
ENDBRANCH  31  34
ENDBRANCH   7  30
BRANCH   8  40
ATOM     40  O   UNL     1     -45.693  46.151  18.888  1.00  0.00    -0.492 OA
BRANCH  40  41
ATOM     41  C   UNL     1     -46.291  45.271  19.836  1.00  0.00     0.226 C 
ATOM     42  C   UNL     1     -47.730  45.688  20.057  1.00  0.00     0.049 C 
ENDBRANCH  40  41
ENDBRANCH   8  40
TORSDOF 11
ENDMDL
MODEL 10
REMARK VINA RESULT:    -8.162      3.139      7.878
REMARK INTER + INTRA:         -15.123
REMARK INTER:                 -13.284
REMARK INTRA:                  -1.839
REMARK UNBOUND:                -1.713
REMARK SMILES CCOc1cc2ncc(C#N)c(Nc3ccc(OCc4ccccn4)c(Cl)c3)c2cc1NC(=O)/C=C/CN(C)C
REMARK SMILES IDX 7 1 11 2 29 3 12 4 6 5 30 6 31 7 4 8 5 9 9 10 8 11 10 12
REMARK SMILES IDX 13 13 14 15 26 16 28 17 17 18 16 19 15 20 27 21 18 22 19 23
REMARK SMILES IDX 20 24 25 25 21 26 24 27 22 28 23 29 32 30 33 31 34 32 35 34
REMARK SMILES IDX 36 35 37 36 38 37 39 38 40 39 3 40 2 41 1 42
REMARK H PARENT 13 14 32 33
ROOT
ATOM      1  N   UNL     1     -40.641  44.603  22.443  1.00  0.00    -0.255 NA
ATOM      2  N   UNL     1     -43.663  42.191  19.592  1.00  0.00    -0.192 NA
ATOM      3  C   UNL     1     -40.151  45.494  20.259  1.00  0.00     0.027 A 
ATOM      4  C   UNL     1     -41.121  44.650  19.703  1.00  0.00     0.068 A 
ATOM      5  C   UNL     1     -39.940  45.437  21.652  1.00  0.00     0.076 A 
ATOM      6  C   UNL     1     -39.402  46.377  19.463  1.00  0.00     0.042 A 
ATOM      7  C   UNL     1     -38.442  47.205  20.040  1.00  0.00     0.084 A 
ATOM      8  C   UNL     1     -38.230  47.154  21.413  1.00  0.00     0.144 A 
ATOM      9  C   UNL     1     -38.976  46.276  22.204  1.00  0.00     0.077 A 
ATOM     10  C   UNL     1     -41.846  43.789  20.516  1.00  0.00     0.094 A 
ATOM     11  C   UNL     1     -41.570  43.805  21.868  1.00  0.00     0.133 A 
ATOM     12  C   UNL     1     -42.849  42.907  20.006  1.00  0.00     0.103 C 
ENDROOT
BRANCH   4  13
ATOM     13  N   UNL     1     -41.379  44.662  18.307  1.00  0.00    -0.354 N 
ATOM     14  H   UNL     1     -41.272  43.746  17.881  1.00  0.00     0.167 HD
BRANCH  13  15
ATOM     15  C   UNL     1     -41.755  45.685  17.425  1.00  0.00     0.040 A 
ATOM     16  C   UNL     1     -43.430  47.212  16.571  1.00  0.00     0.085 A 
ATOM     17  C   UNL     1     -43.058  46.194  17.448  1.00  0.00     0.050 A 
ATOM     18  C   UNL     1     -42.502  47.727  15.664  1.00  0.00     0.138 A 
ATOM     19  C   UNL     1     -41.202  47.223  15.636  1.00  0.00     0.050 A 
ATOM     20  C   UNL     1     -40.830  46.205  16.514  1.00  0.00     0.030 A 
ATOM     21  Cl  UNL     1     -45.045  47.817  16.627  1.00  0.00    -0.080 Cl
BRANCH  18  22
ATOM     22  O   UNL     1     -42.839  48.722  14.796  1.00  0.00    -0.486 OA
BRANCH  22  23
ATOM     23  C   UNL     1     -42.335  50.026  15.079  1.00  0.00     0.285 C 
BRANCH  23  24
ATOM     24  C   UNL     1     -41.352  50.412  14.014  1.00  0.00     0.078 A 
ATOM     25  N   UNL     1     -41.816  50.423  12.747  1.00  0.00    -0.258 NA
ATOM     26  C   UNL     1     -40.058  50.730  14.377  1.00  0.00     0.027 A 
ATOM     27  C   UNL     1     -40.927  50.772  11.792  1.00  0.00     0.111 A 
ATOM     28  C   UNL     1     -39.172  51.085  13.366  1.00  0.00     0.004 A 
ATOM     29  C   UNL     1     -39.608  51.108  12.046  1.00  0.00     0.020 A 
ENDBRANCH  23  24
ENDBRANCH  22  23
ENDBRANCH  18  22
ENDBRANCH  13  15
ENDBRANCH   4  13
BRANCH   7  30
ATOM     30  N   UNL     1     -37.707  48.075  19.234  1.00  0.00    -0.319 N 
ATOM     31  C   UNL     1     -38.168  48.866  18.173  1.00  0.00     0.248 C 
ATOM     32  O   UNL     1     -39.317  48.939  17.751  1.00  0.00    -0.270 OA
ATOM     33  H   UNL     1     -36.715  48.127  19.461  1.00  0.00     0.170 HD
BRANCH  31  34
ATOM     34  C   UNL     1     -37.064  49.662  17.559  1.00  0.00     0.068 C 
ATOM     35  C   UNL     1     -37.058  49.915  16.243  1.00  0.00    -0.006 C 
BRANCH  35  36
ATOM     36  C   UNL     1     -35.986  50.715  15.565  1.00  0.00     0.111 C 
BRANCH  36  37
ATOM     37  N   UNL     1     -35.823  52.026  16.184  1.00  0.00    -0.306 NA
ATOM     38  C   UNL     1     -36.688  53.011  15.535  1.00  0.00     0.105 C 
ATOM     39  C   UNL     1     -34.425  52.455  16.121  1.00  0.00     0.105 C 
ENDBRANCH  36  37
ENDBRANCH  35  36
ENDBRANCH  31  34
ENDBRANCH   7  30
BRANCH   8  40
ATOM     40  O   UNL     1     -37.298  47.951  22.008  1.00  0.00    -0.492 OA
BRANCH  40  41
ATOM     41  C   UNL     1     -36.299  47.303  22.792  1.00  0.00     0.226 C 
ATOM     42  C   UNL     1     -35.279  46.672  21.869  1.00  0.00     0.049 C 
ENDBRANCH  40  41
ENDBRANCH   8  40
TORSDOF 11
ENDMDL
MODEL 11
REMARK VINA RESULT:    -8.157      3.638      7.733
REMARK INTER + INTRA:         -15.116
REMARK INTER:                 -13.419
REMARK INTRA:                  -1.696
REMARK UNBOUND:                -1.713
REMARK SMILES CCOc1cc2ncc(C#N)c(Nc3ccc(OCc4ccccn4)c(Cl)c3)c2cc1NC(=O)/C=C/CN(C)C
REMARK SMILES IDX 7 1 11 2 29 3 12 4 6 5 30 6 31 7 4 8 5 9 9 10 8 11 10 12
REMARK SMILES IDX 13 13 14 15 26 16 28 17 17 18 16 19 15 20 27 21 18 22 19 23
REMARK SMILES IDX 20 24 25 25 21 26 24 27 22 28 23 29 32 30 33 31 34 32 35 34
REMARK SMILES IDX 36 35 37 36 38 37 39 38 40 39 3 40 2 41 1 42
REMARK H PARENT 13 14 32 33
ROOT
ATOM      1  N   UNL     1     -43.197  45.204  20.354  1.00  0.00    -0.255 NA
ATOM      2  N   UNL     1     -38.448  45.229  19.622  1.00  0.00    -0.192 NA
ATOM      3  C   UNL     1     -43.005  45.953  18.072  1.00  0.00     0.027 A 
ATOM      4  C   UNL     1     -41.611  45.860  18.164  1.00  0.00     0.068 A 
ATOM      5  C   UNL     1     -43.771  45.611  19.206  1.00  0.00     0.076 A 
ATOM      6  C   UNL     1     -43.638  46.374  16.889  1.00  0.00     0.042 A 
ATOM      7  C   UNL     1     -45.026  46.459  16.825  1.00  0.00     0.084 A 
ATOM      8  C   UNL     1     -45.786  46.123  17.939  1.00  0.00     0.144 A 
ATOM      9  C   UNL     1     -45.156  45.705  19.114  1.00  0.00     0.077 A 
ATOM     10  C   UNL     1     -41.016  45.439  19.346  1.00  0.00     0.094 A 
ATOM     11  C   UNL     1     -41.847  45.126  20.402  1.00  0.00     0.133 A 
ATOM     12  C   UNL     1     -39.599  45.324  19.498  1.00  0.00     0.103 C 
ENDROOT
BRANCH   4  13
ATOM     13  N   UNL     1     -40.787  46.190  17.056  1.00  0.00    -0.354 N 
ATOM     14  H   UNL     1     -40.571  45.385  16.475  1.00  0.00     0.167 HD
BRANCH  13  15
ATOM     15  C   UNL     1     -40.232  47.401  16.620  1.00  0.00     0.040 A 
ATOM     16  C   UNL     1     -38.531  49.117  16.795  1.00  0.00     0.085 A 
ATOM     17  C   UNL     1     -39.082  47.911  17.230  1.00  0.00     0.050 A 
ATOM     18  C   UNL     1     -39.128  49.819  15.747  1.00  0.00     0.138 A 
ATOM     19  C   UNL     1     -40.276  49.316  15.136  1.00  0.00     0.050 A 
ATOM     20  C   UNL     1     -40.827  48.111  15.571  1.00  0.00     0.030 A 
ATOM     21  Cl  UNL     1     -37.110  49.716  17.569  1.00  0.00    -0.080 Cl
BRANCH  18  22
ATOM     22  O   UNL     1     -38.611  50.999  15.302  1.00  0.00    -0.486 OA
BRANCH  22  23
ATOM     23  C   UNL     1     -37.565  50.922  14.335  1.00  0.00     0.285 C 
BRANCH  23  24
ATOM     24  C   UNL     1     -36.421  51.784  14.783  1.00  0.00     0.078 A 
ATOM     25  N   UNL     1     -35.201  51.210  14.775  1.00  0.00    -0.258 NA
ATOM     26  C   UNL     1     -36.673  53.086  15.168  1.00  0.00     0.027 A 
ATOM     27  C   UNL     1     -34.175  51.990  15.179  1.00  0.00     0.111 A 
ATOM     28  C   UNL     1     -35.592  53.859  15.577  1.00  0.00     0.004 A 
ATOM     29  C   UNL     1     -34.315  53.307  15.585  1.00  0.00     0.020 A 
ENDBRANCH  23  24
ENDBRANCH  22  23
ENDBRANCH  18  22
ENDBRANCH  13  15
ENDBRANCH   4  13
BRANCH   7  30
ATOM     30  N   UNL     1     -45.637  46.880  15.642  1.00  0.00    -0.319 N 
ATOM     31  C   UNL     1     -45.745  46.182  14.432  1.00  0.00     0.248 C 
ATOM     32  O   UNL     1     -45.318  45.061  14.184  1.00  0.00    -0.270 OA
ATOM     33  H   UNL     1     -46.047  47.811  15.685  1.00  0.00     0.170 HD
BRANCH  31  34
ATOM     34  C   UNL     1     -46.474  46.980  13.401  1.00  0.00     0.068 C 
ATOM     35  C   UNL     1     -46.315  48.309  13.330  1.00  0.00    -0.006 C 
BRANCH  35  36
ATOM     36  C   UNL     1     -47.008  49.166  12.314  1.00  0.00     0.111 C 
BRANCH  36  37
ATOM     37  N   UNL     1     -46.053  49.870  11.466  1.00  0.00    -0.306 NA
ATOM     38  C   UNL     1     -44.811  50.130  12.195  1.00  0.00     0.105 C 
ATOM     39  C   UNL     1     -46.626  51.124  10.975  1.00  0.00     0.105 C 
ENDBRANCH  36  37
ENDBRANCH  35  36
ENDBRANCH  31  34
ENDBRANCH   7  30
BRANCH   8  40
ATOM     40  O   UNL     1     -47.147  46.197  17.907  1.00  0.00    -0.492 OA
BRANCH  40  41
ATOM     41  C   UNL     1     -47.832  46.037  19.147  1.00  0.00     0.226 C 
ATOM     42  C   UNL     1     -49.139  46.800  19.090  1.00  0.00     0.049 C 
ENDBRANCH  40  41
ENDBRANCH   8  40
TORSDOF 11
ENDMDL
MODEL 12
REMARK VINA RESULT:    -8.079      4.465      9.456
REMARK INTER + INTRA:         -14.987
REMARK INTER:                 -13.088
REMARK INTRA:                  -1.899
REMARK UNBOUND:                -1.713
REMARK SMILES CCOc1cc2ncc(C#N)c(Nc3ccc(OCc4ccccn4)c(Cl)c3)c2cc1NC(=O)/C=C/CN(C)C
REMARK SMILES IDX 7 1 11 2 29 3 12 4 6 5 30 6 31 7 4 8 5 9 9 10 8 11 10 12
REMARK SMILES IDX 13 13 14 15 26 16 28 17 17 18 16 19 15 20 27 21 18 22 19 23
REMARK SMILES IDX 20 24 25 25 21 26 24 27 22 28 23 29 32 30 33 31 34 32 35 34
REMARK SMILES IDX 36 35 37 36 38 37 39 38 40 39 3 40 2 41 1 42
REMARK H PARENT 13 14 32 33
ROOT
ATOM      1  N   UNL     1     -38.450  50.475  15.868  1.00  0.00    -0.255 NA
ATOM      2  N   UNL     1     -40.736  51.279  11.720  1.00  0.00    -0.192 NA
ATOM      3  C   UNL     1     -39.938  48.588  15.696  1.00  0.00     0.027 A 
ATOM      4  C   UNL     1     -40.420  49.086  14.479  1.00  0.00     0.068 A 
ATOM      5  C   UNL     1     -38.939  49.325  16.367  1.00  0.00     0.076 A 
ATOM      6  C   UNL     1     -40.426  47.390  16.246  1.00  0.00     0.042 A 
ATOM      7  C   UNL     1     -39.930  46.918  17.458  1.00  0.00     0.084 A 
ATOM      8  C   UNL     1     -38.946  47.638  18.124  1.00  0.00     0.144 A 
ATOM      9  C   UNL     1     -38.461  48.829  17.576  1.00  0.00     0.077 A 
ATOM     10  C   UNL     1     -39.917  50.272  13.962  1.00  0.00     0.094 A 
ATOM     11  C   UNL     1     -38.941  50.922  14.690  1.00  0.00     0.133 A 
ATOM     12  C   UNL     1     -40.369  50.828  12.724  1.00  0.00     0.103 C 
ENDROOT
BRANCH   4  13
ATOM     13  N   UNL     1     -41.424  48.390  13.758  1.00  0.00    -0.354 N 
ATOM     14  H   UNL     1     -41.050  47.857  12.978  1.00  0.00     0.167 HD
BRANCH  13  15
ATOM     15  C   UNL     1     -42.814  48.297  13.924  1.00  0.00     0.040 A 
ATOM     16  C   UNL     1     -44.747  47.174  14.856  1.00  0.00     0.085 A 
ATOM     17  C   UNL     1     -43.365  47.265  14.691  1.00  0.00     0.050 A 
ATOM     18  C   UNL     1     -45.586  48.113  14.254  1.00  0.00     0.138 A 
ATOM     19  C   UNL     1     -45.042  49.143  13.487  1.00  0.00     0.050 A 
ATOM     20  C   UNL     1     -43.660  49.234  13.322  1.00  0.00     0.030 A 
ATOM     21  Cl  UNL     1     -45.393  45.890  15.810  1.00  0.00    -0.080 Cl
BRANCH  18  22
ATOM     22  O   UNL     1     -46.940  48.047  14.398  1.00  0.00    -0.486 OA
BRANCH  22  23
ATOM     23  C   UNL     1     -47.729  48.411  13.267  1.00  0.00     0.285 C 
BRANCH  23  24
ATOM     24  C   UNL     1     -48.105  47.168  12.515  1.00  0.00     0.078 A 
ATOM     25  N   UNL     1     -48.221  47.290  11.177  1.00  0.00    -0.258 NA
ATOM     26  C   UNL     1     -48.307  45.995  13.216  1.00  0.00     0.027 A 
ATOM     27  C   UNL     1     -48.560  46.168  10.505  1.00  0.00     0.111 A 
ATOM     28  C   UNL     1     -48.654  44.861  12.490  1.00  0.00     0.004 A 
ATOM     29  C   UNL     1     -48.785  44.942  11.108  1.00  0.00     0.020 A 
ENDBRANCH  23  24
ENDBRANCH  22  23
ENDBRANCH  18  22
ENDBRANCH  13  15
ENDBRANCH   4  13
BRANCH   7  30
ATOM     30  N   UNL     1     -40.427  45.726  17.989  1.00  0.00    -0.319 N 
ATOM     31  C   UNL     1     -41.742  45.438  18.378  1.00  0.00     0.248 C 
ATOM     32  O   UNL     1     -42.710  46.188  18.325  1.00  0.00    -0.270 OA
ATOM     33  H   UNL     1     -39.733  44.989  18.099  1.00  0.00     0.170 HD
BRANCH  31  34
ATOM     34  C   UNL     1     -41.868  44.044  18.900  1.00  0.00     0.068 C 
ATOM     35  C   UNL     1     -42.075  43.822  20.206  1.00  0.00    -0.006 C 
BRANCH  35  36
ATOM     36  C   UNL     1     -42.220  42.451  20.794  1.00  0.00     0.111 C 
BRANCH  36  37
ATOM     37  N   UNL     1     -43.540  42.258  21.385  1.00  0.00    -0.306 NA
ATOM     38  C   UNL     1     -44.475  41.728  20.393  1.00  0.00     0.105 C 
ATOM     39  C   UNL     1     -44.045  43.516  21.939  1.00  0.00     0.105 C 
ENDBRANCH  36  37
ENDBRANCH  35  36
ENDBRANCH  31  34
ENDBRANCH   7  30
BRANCH   8  40
ATOM     40  O   UNL     1     -38.440  47.203  19.312  1.00  0.00    -0.492 OA
BRANCH  40  41
ATOM     41  C   UNL     1     -38.615  48.056  20.441  1.00  0.00     0.226 C 
ATOM     42  C   UNL     1     -40.032  47.910  20.955  1.00  0.00     0.049 C 
ENDBRANCH  40  41
ENDBRANCH   8  40
TORSDOF 11
ENDMDL
MODEL 13
REMARK VINA RESULT:    -8.044      3.641      9.584
REMARK INTER + INTRA:         -14.929
REMARK INTER:                 -13.225
REMARK INTRA:                  -1.704
REMARK UNBOUND:                -1.713
REMARK SMILES CCOc1cc2ncc(C#N)c(Nc3ccc(OCc4ccccn4)c(Cl)c3)c2cc1NC(=O)/C=C/CN(C)C
REMARK SMILES IDX 7 1 11 2 29 3 12 4 6 5 30 6 31 7 4 8 5 9 9 10 8 11 10 12
REMARK SMILES IDX 13 13 14 15 26 16 28 17 17 18 16 19 15 20 27 21 18 22 19 23
REMARK SMILES IDX 20 24 25 25 21 26 24 27 22 28 23 29 32 30 33 31 34 32 35 34
REMARK SMILES IDX 36 35 37 36 38 37 39 38 40 39 3 40 2 41 1 42
REMARK H PARENT 13 14 32 33
ROOT
ATOM      1  N   UNL     1     -40.158  44.525  22.953  1.00  0.00    -0.255 NA
ATOM      2  N   UNL     1     -43.824  42.145  20.959  1.00  0.00    -0.192 NA
ATOM      3  C   UNL     1     -40.087  45.250  20.657  1.00  0.00     0.027 A 
ATOM      4  C   UNL     1     -41.193  44.438  20.372  1.00  0.00     0.068 A 
ATOM      5  C   UNL     1     -39.595  45.264  21.978  1.00  0.00     0.076 A 
ATOM      6  C   UNL     1     -39.476  46.034  19.663  1.00  0.00     0.042 A 
ATOM      7  C   UNL     1     -38.377  46.831  19.972  1.00  0.00     0.084 A 
ATOM      8  C   UNL     1     -37.888  46.849  21.272  1.00  0.00     0.144 A 
ATOM      9  C   UNL     1     -38.496  46.070  22.260  1.00  0.00     0.077 A 
ATOM     10  C   UNL     1     -41.776  43.676  21.376  1.00  0.00     0.094 A 
ATOM     11  C   UNL     1     -41.224  43.756  22.639  1.00  0.00     0.133 A 
ATOM     12  C   UNL     1     -42.906  42.831  21.146  1.00  0.00     0.103 C 
ENDROOT
BRANCH   4  13
ATOM     13  N   UNL     1     -41.734  44.382  19.061  1.00  0.00    -0.354 N 
ATOM     14  H   UNL     1     -41.547  43.499  18.597  1.00  0.00     0.167 HD
BRANCH  13  15
ATOM     15  C   UNL     1     -42.472  45.304  18.305  1.00  0.00     0.040 A 
ATOM     16  C   UNL     1     -42.581  46.981  16.561  1.00  0.00     0.085 A 
ATOM     17  C   UNL     1     -41.846  46.065  17.313  1.00  0.00     0.050 A 
ATOM     18  C   UNL     1     -43.947  47.142  16.797  1.00  0.00     0.138 A 
ATOM     19  C   UNL     1     -44.577  46.387  17.785  1.00  0.00     0.050 A 
ATOM     20  C   UNL     1     -43.841  45.471  18.537  1.00  0.00     0.030 A 
ATOM     21  Cl  UNL     1     -41.776  47.903  15.344  1.00  0.00    -0.080 Cl
BRANCH  18  22
ATOM     22  O   UNL     1     -44.689  48.030  16.076  1.00  0.00    -0.486 OA
BRANCH  22  23
ATOM     23  C   UNL     1     -45.638  47.486  15.161  1.00  0.00     0.285 C 
BRANCH  23  24
ATOM     24  C   UNL     1     -45.698  48.360  13.943  1.00  0.00     0.078 A 
ATOM     25  N   UNL     1     -46.856  48.344  13.251  1.00  0.00    -0.258 NA
ATOM     26  C   UNL     1     -44.593  49.118  13.605  1.00  0.00     0.027 A 
ATOM     27  C   UNL     1     -46.905  49.133  12.156  1.00  0.00     0.111 A 
ATOM     28  C   UNL     1     -44.682  49.919  12.472  1.00  0.00     0.004 A 
ATOM     29  C   UNL     1     -45.857  49.932  11.728  1.00  0.00     0.020 A 
ENDBRANCH  23  24
ENDBRANCH  22  23
ENDBRANCH  18  22
ENDBRANCH  13  15
ENDBRANCH   4  13
BRANCH   7  30
ATOM     30  N   UNL     1     -37.782  47.603  18.972  1.00  0.00    -0.319 N 
ATOM     31  C   UNL     1     -38.407  48.458  18.055  1.00  0.00     0.248 C 
ATOM     32  O   UNL     1     -39.607  48.688  17.959  1.00  0.00    -0.270 OA
ATOM     33  H   UNL     1     -36.768  47.519  18.919  1.00  0.00     0.170 HD
BRANCH  31  34
ATOM     34  C   UNL     1     -37.418  49.104  17.142  1.00  0.00     0.068 C 
ATOM     35  C   UNL     1     -37.809  49.613  15.965  1.00  0.00    -0.006 C 
BRANCH  35  36
ATOM     36  C   UNL     1     -36.870  50.283  15.007  1.00  0.00     0.111 C 
BRANCH  36  37
ATOM     37  N   UNL     1     -37.528  51.360  14.277  1.00  0.00    -0.306 NA
ATOM     38  C   UNL     1     -37.336  52.638  14.963  1.00  0.00     0.105 C 
ATOM     39  C   UNL     1     -38.955  51.078  14.118  1.00  0.00     0.105 C 
ENDBRANCH  36  37
ENDBRANCH  35  36
ENDBRANCH  31  34
ENDBRANCH   7  30
BRANCH   8  40
ATOM     40  O   UNL     1     -36.813  47.619  21.606  1.00  0.00    -0.492 OA
BRANCH  40  41
ATOM     41  C   UNL     1     -35.888  47.068  22.540  1.00  0.00     0.226 C 
ATOM     42  C   UNL     1     -34.769  46.386  21.781  1.00  0.00     0.049 C 
ENDBRANCH  40  41
ENDBRANCH   8  40
TORSDOF 11
ENDMDL
MODEL 14
REMARK VINA RESULT:    -8.041      4.353      9.328
REMARK INTER + INTRA:         -14.925
REMARK INTER:                 -13.010
REMARK INTRA:                  -1.915
REMARK UNBOUND:                -1.713
REMARK SMILES CCOc1cc2ncc(C#N)c(Nc3ccc(OCc4ccccn4)c(Cl)c3)c2cc1NC(=O)/C=C/CN(C)C
REMARK SMILES IDX 7 1 11 2 29 3 12 4 6 5 30 6 31 7 4 8 5 9 9 10 8 11 10 12
REMARK SMILES IDX 13 13 14 15 26 16 28 17 17 18 16 19 15 20 27 21 18 22 19 23
REMARK SMILES IDX 20 24 25 25 21 26 24 27 22 28 23 29 32 30 33 31 34 32 35 34
REMARK SMILES IDX 36 35 37 36 38 37 39 38 40 39 3 40 2 41 1 42
REMARK H PARENT 13 14 32 33
ROOT
ATOM      1  N   UNL     1     -38.404  50.527  15.847  1.00  0.00    -0.255 NA
ATOM      2  N   UNL     1     -40.689  51.419  11.716  1.00  0.00    -0.192 NA
ATOM      3  C   UNL     1     -39.916  48.661  15.651  1.00  0.00     0.027 A 
ATOM      4  C   UNL     1     -40.395  49.183  14.442  1.00  0.00     0.068 A 
ATOM      5  C   UNL     1     -38.907  49.375  16.330  1.00  0.00     0.076 A 
ATOM      6  C   UNL     1     -40.418  47.461  16.184  1.00  0.00     0.042 A 
ATOM      7  C   UNL     1     -39.926  46.965  17.388  1.00  0.00     0.084 A 
ATOM      8  C   UNL     1     -38.931  47.664  18.062  1.00  0.00     0.144 A 
ATOM      9  C   UNL     1     -38.432  48.856  17.531  1.00  0.00     0.077 A 
ATOM     10  C   UNL     1     -39.878  50.370  13.941  1.00  0.00     0.094 A 
ATOM     11  C   UNL     1     -38.892  50.997  14.676  1.00  0.00     0.133 A 
ATOM     12  C   UNL     1     -40.326  50.949  12.713  1.00  0.00     0.103 C 
ENDROOT
BRANCH   4  13
ATOM     13  N   UNL     1     -41.409  48.510  13.713  1.00  0.00    -0.354 N 
ATOM     14  H   UNL     1     -41.035  47.851  13.037  1.00  0.00     0.167 HD
BRANCH  13  15
ATOM     15  C   UNL     1     -42.809  48.580  13.758  1.00  0.00     0.040 A 
ATOM     16  C   UNL     1     -44.900  49.408  12.859  1.00  0.00     0.085 A 
ATOM     17  C   UNL     1     -43.508  49.339  12.814  1.00  0.00     0.050 A 
ATOM     18  C   UNL     1     -45.602  48.719  13.849  1.00  0.00     0.138 A 
ATOM     19  C   UNL     1     -44.910  47.962  14.794  1.00  0.00     0.050 A 
ATOM     20  C   UNL     1     -43.518  47.892  14.749  1.00  0.00     0.030 A 
ATOM     21  Cl  UNL     1     -45.731  50.353  11.678  1.00  0.00    -0.080 Cl
BRANCH  18  22
ATOM     22  O   UNL     1     -46.963  48.769  13.917  1.00  0.00    -0.486 OA
BRANCH  22  23
ATOM     23  C   UNL     1     -47.633  47.578  14.324  1.00  0.00     0.285 C 
BRANCH  23  24
ATOM     24  C   UNL     1     -47.975  46.770  13.108  1.00  0.00     0.078 A 
ATOM     25  N   UNL     1     -48.518  47.444  12.074  1.00  0.00    -0.258 NA
ATOM     26  C   UNL     1     -47.721  45.411  13.111  1.00  0.00     0.027 A 
ATOM     27  C   UNL     1     -48.823  46.711  10.980  1.00  0.00     0.111 A 
ATOM     28  C   UNL     1     -48.048  44.691  11.968  1.00  0.00     0.004 A 
ATOM     29  C   UNL     1     -48.610  45.346  10.878  1.00  0.00     0.020 A 
ENDBRANCH  23  24
ENDBRANCH  22  23
ENDBRANCH  18  22
ENDBRANCH  13  15
ENDBRANCH   4  13
BRANCH   7  30
ATOM     30  N   UNL     1     -40.437  45.772  17.903  1.00  0.00    -0.319 N 
ATOM     31  C   UNL     1     -41.724  45.529  18.401  1.00  0.00     0.248 C 
ATOM     32  O   UNL     1     -42.649  46.329  18.480  1.00  0.00    -0.270 OA
ATOM     33  H   UNL     1     -39.778  44.996  17.908  1.00  0.00     0.170 HD
BRANCH  31  34
ATOM     34  C   UNL     1     -41.878  44.117  18.861  1.00  0.00     0.068 C 
ATOM     35  C   UNL     1     -42.143  43.845  20.147  1.00  0.00    -0.006 C 
BRANCH  35  36
ATOM     36  C   UNL     1     -42.319  42.452  20.672  1.00  0.00     0.111 C 
BRANCH  36  37
ATOM     37  N   UNL     1     -43.615  42.283  21.320  1.00  0.00    -0.306 NA
ATOM     38  C   UNL     1     -44.624  41.861  20.347  1.00  0.00     0.105 C 
ATOM     39  C   UNL     1     -44.029  43.524  21.975  1.00  0.00     0.105 C 
ENDBRANCH  36  37
ENDBRANCH  35  36
ENDBRANCH  31  34
ENDBRANCH   7  30
BRANCH   8  40
ATOM     40  O   UNL     1     -38.429  47.204  19.243  1.00  0.00    -0.492 OA
BRANCH  40  41
ATOM     41  C   UNL     1     -38.603  48.037  20.387  1.00  0.00     0.226 C 
ATOM     42  C   UNL     1     -39.975  47.786  20.976  1.00  0.00     0.049 C 
ENDBRANCH  40  41
ENDBRANCH   8  40
TORSDOF 11
ENDMDL
MODEL 15
REMARK VINA RESULT:    -7.997      3.428      8.193
REMARK INTER + INTRA:         -14.853
REMARK INTER:                 -13.181
REMARK INTRA:                  -1.673
REMARK UNBOUND:                -1.713
REMARK SMILES CCOc1cc2ncc(C#N)c(Nc3ccc(OCc4ccccn4)c(Cl)c3)c2cc1NC(=O)/C=C/CN(C)C
REMARK SMILES IDX 7 1 11 2 29 3 12 4 6 5 30 6 31 7 4 8 5 9 9 10 8 11 10 12
REMARK SMILES IDX 13 13 14 15 26 16 28 17 17 18 16 19 15 20 27 21 18 22 19 23
REMARK SMILES IDX 20 24 25 25 21 26 24 27 22 28 23 29 32 30 33 31 34 32 35 34
REMARK SMILES IDX 36 35 37 36 38 37 39 38 40 39 3 40 2 41 1 42
REMARK H PARENT 13 14 32 33
ROOT
ATOM      1  N   UNL     1     -45.057  47.435  14.134  1.00  0.00    -0.255 NA
ATOM      2  N   UNL     1     -46.902  46.234  18.405  1.00  0.00    -0.192 NA
ATOM      3  C   UNL     1     -43.383  48.210  15.683  1.00  0.00     0.027 A 
ATOM      4  C   UNL     1     -44.164  47.746  16.750  1.00  0.00     0.068 A 
ATOM      5  C   UNL     1     -43.875  48.032  14.373  1.00  0.00     0.076 A 
ATOM      6  C   UNL     1     -42.144  48.838  15.897  1.00  0.00     0.042 A 
ATOM      7  C   UNL     1     -41.388  49.291  14.819  1.00  0.00     0.084 A 
ATOM      8  C   UNL     1     -41.867  49.117  13.526  1.00  0.00     0.144 A 
ATOM      9  C   UNL     1     -43.099  48.493  13.314  1.00  0.00     0.077 A 
ATOM     10  C   UNL     1     -45.383  47.130  16.506  1.00  0.00     0.094 A 
ATOM     11  C   UNL     1     -45.780  47.000  15.191  1.00  0.00     0.133 A 
ATOM     12  C   UNL     1     -46.222  46.636  17.554  1.00  0.00     0.103 C 
ENDROOT
BRANCH   4  13
ATOM     13  N   UNL     1     -43.722  47.897  18.091  1.00  0.00    -0.354 N 
ATOM     14  H   UNL     1     -44.208  48.641  18.583  1.00  0.00     0.167 HD
BRANCH  13  15
ATOM     15  C   UNL     1     -42.761  47.215  18.850  1.00  0.00     0.040 A 
ATOM     16  C   UNL     1     -41.908  45.157  19.802  1.00  0.00     0.085 A 
ATOM     17  C   UNL     1     -42.866  45.834  19.047  1.00  0.00     0.050 A 
ATOM     18  C   UNL     1     -40.841  45.857  20.366  1.00  0.00     0.138 A 
ATOM     19  C   UNL     1     -40.732  47.234  20.174  1.00  0.00     0.050 A 
ATOM     20  C   UNL     1     -41.689  47.911  19.419  1.00  0.00     0.030 A 
ATOM     21  Cl  UNL     1     -42.068  43.453  20.023  1.00  0.00    -0.080 Cl
BRANCH  18  22
ATOM     22  O   UNL     1     -39.891  45.220  21.109  1.00  0.00    -0.486 OA
BRANCH  22  23
ATOM     23  C   UNL     1     -39.499  45.845  22.329  1.00  0.00     0.285 C 
BRANCH  23  24
ATOM     24  C   UNL     1     -38.002  45.915  22.383  1.00  0.00     0.078 A 
ATOM     25  N   UNL     1     -37.374  44.874  22.967  1.00  0.00    -0.258 NA
ATOM     26  C   UNL     1     -37.361  47.014  21.843  1.00  0.00     0.027 A 
ATOM     27  C   UNL     1     -36.025  44.943  23.012  1.00  0.00     0.111 A 
ATOM     28  C   UNL     1     -35.973  47.049  21.907  1.00  0.00     0.004 A 
ATOM     29  C   UNL     1     -35.285  45.997  22.502  1.00  0.00     0.020 A 
ENDBRANCH  23  24
ENDBRANCH  22  23
ENDBRANCH  18  22
ENDBRANCH  13  15
ENDBRANCH   4  13
BRANCH   7  30
ATOM     30  N   UNL     1     -40.159  49.912  15.050  1.00  0.00    -0.319 N 
ATOM     31  C   UNL     1     -39.022  49.373  15.666  1.00  0.00     0.248 C 
ATOM     32  O   UNL     1     -38.895  48.242  16.122  1.00  0.00    -0.270 OA
ATOM     33  H   UNL     1     -40.104  50.875  14.724  1.00  0.00     0.170 HD
BRANCH  31  34
ATOM     34  C   UNL     1     -37.906  50.363  15.724  1.00  0.00     0.068 C 
ATOM     35  C   UNL     1     -37.189  50.646  14.627  1.00  0.00    -0.006 C 
BRANCH  35  36
ATOM     36  C   UNL     1     -36.064  51.636  14.614  1.00  0.00     0.111 C 
BRANCH  36  37
ATOM     37  N   UNL     1     -36.135  52.544  15.754  1.00  0.00    -0.306 NA
ATOM     38  C   UNL     1     -36.915  53.734  15.414  1.00  0.00     0.105 C 
ATOM     39  C   UNL     1     -34.792  52.924  16.194  1.00  0.00     0.105 C 
ENDBRANCH  36  37
ENDBRANCH  35  36
ENDBRANCH  31  34
ENDBRANCH   7  30
BRANCH   8  40
ATOM     40  O   UNL     1     -41.151  49.551  12.449  1.00  0.00    -0.492 OA
BRANCH  40  41
ATOM     41  C   UNL     1     -41.229  50.939  12.137  1.00  0.00     0.226 C 
ATOM     42  C   UNL     1     -39.862  51.425  11.704  1.00  0.00     0.049 C 
ENDBRANCH  40  41
ENDBRANCH   8  40
TORSDOF 11
ENDMDL
MODEL 16
REMARK VINA RESULT:    -7.968      3.516      7.832
REMARK INTER + INTRA:         -14.805
REMARK INTER:                 -13.630
REMARK INTRA:                  -1.175
REMARK UNBOUND:                -1.713
REMARK SMILES CCOc1cc2ncc(C#N)c(Nc3ccc(OCc4ccccn4)c(Cl)c3)c2cc1NC(=O)/C=C/CN(C)C
REMARK SMILES IDX 7 1 11 2 29 3 12 4 6 5 30 6 31 7 4 8 5 9 9 10 8 11 10 12
REMARK SMILES IDX 13 13 14 15 26 16 28 17 17 18 16 19 15 20 27 21 18 22 19 23
REMARK SMILES IDX 20 24 25 25 21 26 24 27 22 28 23 29 32 30 33 31 34 32 35 34
REMARK SMILES IDX 36 35 37 36 38 37 39 38 40 39 3 40 2 41 1 42
REMARK H PARENT 13 14 32 33
ROOT
ATOM      1  N   UNL     1     -45.425  48.645  13.234  1.00  0.00    -0.255 NA
ATOM      2  N   UNL     1     -48.204  47.338  16.929  1.00  0.00    -0.192 NA
ATOM      3  C   UNL     1     -43.873  48.565  15.076  1.00  0.00     0.027 A 
ATOM      4  C   UNL     1     -44.917  48.186  15.931  1.00  0.00     0.068 A 
ATOM      5  C   UNL     1     -44.176  48.788  13.716  1.00  0.00     0.076 A 
ATOM      6  C   UNL     1     -42.558  48.722  15.546  1.00  0.00     0.042 A 
ATOM      7  C   UNL     1     -41.540  49.101  14.675  1.00  0.00     0.084 A 
ATOM      8  C   UNL     1     -41.831  49.322  13.334  1.00  0.00     0.144 A 
ATOM      9  C   UNL     1     -43.139  49.164  12.868  1.00  0.00     0.077 A 
ATOM     10  C   UNL     1     -46.205  48.037  15.436  1.00  0.00     0.094 A 
ATOM     11  C   UNL     1     -46.404  48.277  14.092  1.00  0.00     0.133 A 
ATOM     12  C   UNL     1     -47.308  47.652  16.260  1.00  0.00     0.103 C 
ENDROOT
BRANCH   4  13
ATOM     13  N   UNL     1     -44.674  47.947  17.309  1.00  0.00    -0.354 N 
ATOM     14  H   UNL     1     -45.478  48.160  17.891  1.00  0.00     0.167 HD
BRANCH  13  15
ATOM     15  C   UNL     1     -43.551  47.472  18.001  1.00  0.00     0.040 A 
ATOM     16  C   UNL     1     -42.192  45.627  18.787  1.00  0.00     0.085 A 
ATOM     17  C   UNL     1     -43.310  46.098  18.098  1.00  0.00     0.050 A 
ATOM     18  C   UNL     1     -41.310  46.528  19.385  1.00  0.00     0.138 A 
ATOM     19  C   UNL     1     -41.546  47.900  19.293  1.00  0.00     0.050 A 
ATOM     20  C   UNL     1     -42.663  48.370  18.604  1.00  0.00     0.030 A 
ATOM     21  Cl  UNL     1     -41.925  43.926  18.885  1.00  0.00    -0.080 Cl
BRANCH  18  22
ATOM     22  O   UNL     1     -40.210  46.096  20.064  1.00  0.00    -0.486 OA
BRANCH  22  23
ATOM     23  C   UNL     1     -38.999  46.823  19.864  1.00  0.00     0.285 C 
BRANCH  23  24
ATOM     24  C   UNL     1     -38.054  46.516  20.987  1.00  0.00     0.078 A 
ATOM     25  N   UNL     1     -37.003  47.350  21.130  1.00  0.00    -0.258 NA
ATOM     26  C   UNL     1     -38.304  45.424  21.796  1.00  0.00     0.027 A 
ATOM     27  C   UNL     1     -36.155  47.068  22.143  1.00  0.00     0.111 A 
ATOM     28  C   UNL     1     -37.409  45.167  22.828  1.00  0.00     0.004 A 
ATOM     29  C   UNL     1     -36.311  46.001  23.012  1.00  0.00     0.020 A 
ENDBRANCH  23  24
ENDBRANCH  22  23
ENDBRANCH  18  22
ENDBRANCH  13  15
ENDBRANCH   4  13
BRANCH   7  30
ATOM     30  N   UNL     1     -40.239  49.253  15.160  1.00  0.00    -0.319 N 
ATOM     31  C   UNL     1     -39.485  48.341  15.909  1.00  0.00     0.248 C 
ATOM     32  O   UNL     1     -39.834  47.227  16.284  1.00  0.00    -0.270 OA
ATOM     33  H   UNL     1     -39.803  50.144  14.928  1.00  0.00     0.170 HD
BRANCH  31  34
ATOM     34  C   UNL     1     -38.132  48.881  16.235  1.00  0.00     0.068 C 
ATOM     35  C   UNL     1     -37.881  50.194  16.134  1.00  0.00    -0.006 C 
BRANCH  35  36
ATOM     36  C   UNL     1     -36.549  50.803  16.455  1.00  0.00     0.111 C 
BRANCH  36  37
ATOM     37  N   UNL     1     -35.666  50.802  15.294  1.00  0.00    -0.306 NA
ATOM     38  C   UNL     1     -34.615  51.807  15.447  1.00  0.00     0.105 C 
ATOM     39  C   UNL     1     -36.427  51.045  14.068  1.00  0.00     0.105 C 
ENDBRANCH  36  37
ENDBRANCH  35  36
ENDBRANCH  31  34
ENDBRANCH   7  30
BRANCH   8  40
ATOM     40  O   UNL     1     -40.856  49.694  12.457  1.00  0.00    -0.492 OA
BRANCH  40  41
ATOM     41  C   UNL     1     -40.789  51.075  12.112  1.00  0.00     0.226 C 
ATOM     42  C   UNL     1     -39.362  51.424  11.748  1.00  0.00     0.049 C 
ENDBRANCH  40  41
ENDBRANCH   8  40
TORSDOF 11
ENDMDL
MODEL 17
REMARK VINA RESULT:    -7.924      4.383      8.372
REMARK INTER + INTRA:         -14.732
REMARK INTER:                 -13.240
REMARK INTRA:                  -1.491
REMARK UNBOUND:                -1.713
REMARK SMILES CCOc1cc2ncc(C#N)c(Nc3ccc(OCc4ccccn4)c(Cl)c3)c2cc1NC(=O)/C=C/CN(C)C
REMARK SMILES IDX 7 1 11 2 29 3 12 4 6 5 30 6 31 7 4 8 5 9 9 10 8 11 10 12
REMARK SMILES IDX 13 13 14 15 26 16 28 17 17 18 16 19 15 20 27 21 18 22 19 23
REMARK SMILES IDX 20 24 25 25 21 26 24 27 22 28 23 29 32 30 33 31 34 32 35 34
REMARK SMILES IDX 36 35 37 36 38 37 39 38 40 39 3 40 2 41 1 42
REMARK H PARENT 13 14 32 33
ROOT
ATOM      1  N   UNL     1     -43.600  45.578  20.114  1.00  0.00    -0.255 NA
ATOM      2  N   UNL     1     -38.846  45.389  19.444  1.00  0.00    -0.192 NA
ATOM      3  C   UNL     1     -43.359  46.145  17.784  1.00  0.00     0.027 A 
ATOM      4  C   UNL     1     -41.969  46.012  17.902  1.00  0.00     0.068 A 
ATOM      5  C   UNL     1     -44.148  45.916  18.931  1.00  0.00     0.076 A 
ATOM      6  C   UNL     1     -43.964  46.495  16.565  1.00  0.00     0.042 A 
ATOM      7  C   UNL     1     -45.347  46.622  16.476  1.00  0.00     0.084 A 
ATOM      8  C   UNL     1     -46.130  46.397  17.602  1.00  0.00     0.144 A 
ATOM      9  C   UNL     1     -45.528  46.048  18.814  1.00  0.00     0.077 A 
ATOM     10  C   UNL     1     -41.401  45.663  19.119  1.00  0.00     0.094 A 
ATOM     11  C   UNL     1     -42.255  45.459  20.185  1.00  0.00     0.133 A 
ATOM     12  C   UNL     1     -39.991  45.512  19.299  1.00  0.00     0.103 C 
ENDROOT
BRANCH   4  13
ATOM     13  N   UNL     1     -41.123  46.229  16.783  1.00  0.00    -0.354 N 
ATOM     14  H   UNL     1     -40.988  45.391  16.224  1.00  0.00     0.167 HD
BRANCH  13  15
ATOM     15  C   UNL     1     -40.456  47.369  16.310  1.00  0.00     0.040 A 
ATOM     16  C   UNL     1     -40.443  49.397  14.987  1.00  0.00     0.085 A 
ATOM     17  C   UNL     1     -41.107  48.264  15.456  1.00  0.00     0.050 A 
ATOM     18  C   UNL     1     -39.123  49.641  15.369  1.00  0.00     0.138 A 
ATOM     19  C   UNL     1     -38.468  48.752  16.220  1.00  0.00     0.050 A 
ATOM     20  C   UNL     1     -39.133  47.618  16.689  1.00  0.00     0.030 A 
ATOM     21  Cl  UNL     1     -41.277  50.481  13.935  1.00  0.00    -0.080 Cl
BRANCH  18  22
ATOM     22  O   UNL     1     -38.450  50.741  14.926  1.00  0.00    -0.486 OA
BRANCH  22  23
ATOM     23  C   UNL     1     -37.141  50.529  14.400  1.00  0.00     0.285 C 
BRANCH  23  24
ATOM     24  C   UNL     1     -36.246  51.643  14.857  1.00  0.00     0.078 A 
ATOM     25  N   UNL     1     -34.932  51.354  14.949  1.00  0.00    -0.258 NA
ATOM     26  C   UNL     1     -36.801  52.873  15.150  1.00  0.00     0.027 A 
ATOM     27  C   UNL     1     -34.130  52.361  15.360  1.00  0.00     0.111 A 
ATOM     28  C   UNL     1     -35.944  53.885  15.570  1.00  0.00     0.004 A 
ATOM     29  C   UNL     1     -34.581  53.631  15.679  1.00  0.00     0.020 A 
ENDBRANCH  23  24
ENDBRANCH  22  23
ENDBRANCH  18  22
ENDBRANCH  13  15
ENDBRANCH   4  13
BRANCH   7  30
ATOM     30  N   UNL     1     -45.931  46.972  15.256  1.00  0.00    -0.319 N 
ATOM     31  C   UNL     1     -46.024  46.199  14.092  1.00  0.00     0.248 C 
ATOM     32  O   UNL     1     -45.605  45.059  13.925  1.00  0.00    -0.270 OA
ATOM     33  H   UNL     1     -46.332  47.907  15.232  1.00  0.00     0.170 HD
BRANCH  31  34
ATOM     34  C   UNL     1     -46.724  46.935  12.997  1.00  0.00     0.068 C 
ATOM     35  C   UNL     1     -47.463  46.274  12.095  1.00  0.00    -0.006 C 
BRANCH  35  36
ATOM     36  C   UNL     1     -48.198  46.952  10.979  1.00  0.00     0.111 C 
BRANCH  36  37
ATOM     37  N   UNL     1     -49.355  46.175  10.549  1.00  0.00    -0.306 NA
ATOM     38  C   UNL     1     -49.803  45.286  11.620  1.00  0.00     0.105 C 
ATOM     39  C   UNL     1     -49.038  45.403   9.346  1.00  0.00     0.105 C 
ENDBRANCH  36  37
ENDBRANCH  35  36
ENDBRANCH  31  34
ENDBRANCH   7  30
BRANCH   8  40
ATOM     40  O   UNL     1     -47.487  46.514  17.547  1.00  0.00    -0.492 OA
BRANCH  40  41
ATOM     41  C   UNL     1     -48.242  45.715  18.455  1.00  0.00     0.226 C 
ATOM     42  C   UNL     1     -49.497  46.466  18.847  1.00  0.00     0.049 C 
ENDBRANCH  40  41
ENDBRANCH   8  40
TORSDOF 11
ENDMDL
MODEL 18
REMARK VINA RESULT:    -7.923      4.454      9.389
REMARK INTER + INTRA:         -14.730
REMARK INTER:                 -12.882
REMARK INTRA:                  -1.848
REMARK UNBOUND:                -1.713
REMARK SMILES CCOc1cc2ncc(C#N)c(Nc3ccc(OCc4ccccn4)c(Cl)c3)c2cc1NC(=O)/C=C/CN(C)C
REMARK SMILES IDX 7 1 11 2 29 3 12 4 6 5 30 6 31 7 4 8 5 9 9 10 8 11 10 12
REMARK SMILES IDX 13 13 14 15 26 16 28 17 17 18 16 19 15 20 27 21 18 22 19 23
REMARK SMILES IDX 20 24 25 25 21 26 24 27 22 28 23 29 32 30 33 31 34 32 35 34
REMARK SMILES IDX 36 35 37 36 38 37 39 38 40 39 3 40 2 41 1 42
REMARK H PARENT 13 14 32 33
ROOT
ATOM      1  N   UNL     1     -38.311  50.723  15.806  1.00  0.00    -0.255 NA
ATOM      2  N   UNL     1     -40.566  51.420  11.621  1.00  0.00    -0.192 NA
ATOM      3  C   UNL     1     -39.755  48.801  15.643  1.00  0.00     0.027 A 
ATOM      4  C   UNL     1     -40.234  49.272  14.414  1.00  0.00     0.068 A 
ATOM      5  C   UNL     1     -38.781  49.569  16.315  1.00  0.00     0.076 A 
ATOM      6  C   UNL     1     -40.223  47.600  16.203  1.00  0.00     0.042 A 
ATOM      7  C   UNL     1     -39.732  47.155  17.427  1.00  0.00     0.084 A 
ATOM      8  C   UNL     1     -38.771  47.906  18.094  1.00  0.00     0.144 A 
ATOM      9  C   UNL     1     -38.306  49.100  17.537  1.00  0.00     0.077 A 
ATOM     10  C   UNL     1     -39.751  50.462  13.886  1.00  0.00     0.094 A 
ATOM     11  C   UNL     1     -38.798  51.143  14.616  1.00  0.00     0.133 A 
ATOM     12  C   UNL     1     -40.201  50.991  12.636  1.00  0.00     0.103 C 
ENDROOT
BRANCH   4  13
ATOM     13  N   UNL     1     -41.214  48.544  13.690  1.00  0.00    -0.354 N 
ATOM     14  H   UNL     1     -40.808  47.867  13.051  1.00  0.00     0.167 HD
BRANCH  13  15
ATOM     15  C   UNL     1     -42.616  48.581  13.700  1.00  0.00     0.040 A 
ATOM     16  C   UNL     1     -44.735  47.710  14.486  1.00  0.00     0.085 A 
ATOM     17  C   UNL     1     -43.341  47.672  14.478  1.00  0.00     0.050 A 
ATOM     18  C   UNL     1     -45.413  48.656  13.717  1.00  0.00     0.138 A 
ATOM     19  C   UNL     1     -44.696  49.565  12.939  1.00  0.00     0.050 A 
ATOM     20  C   UNL     1     -43.302  49.527  12.930  1.00  0.00     0.030 A 
ATOM     21  Cl  UNL     1     -45.597  46.575  15.459  1.00  0.00    -0.080 Cl
BRANCH  18  22
ATOM     22  O   UNL     1     -46.775  48.716  13.707  1.00  0.00    -0.486 OA
BRANCH  22  23
ATOM     23  C   UNL     1     -47.414  48.691  12.432  1.00  0.00     0.285 C 
BRANCH  23  24
ATOM     24  C   UNL     1     -48.185  49.965  12.248  1.00  0.00     0.078 A 
ATOM     25  N   UNL     1     -49.255  50.138  13.050  1.00  0.00    -0.258 NA
ATOM     26  C   UNL     1     -47.766  50.870  11.291  1.00  0.00     0.027 A 
ATOM     27  C   UNL     1     -49.946  51.287  12.879  1.00  0.00     0.111 A 
ATOM     28  C   UNL     1     -48.502  52.041  11.146  1.00  0.00     0.004 A 
ATOM     29  C   UNL     1     -49.614  52.261  11.951  1.00  0.00     0.020 A 
ENDBRANCH  23  24
ENDBRANCH  22  23
ENDBRANCH  18  22
ENDBRANCH  13  15
ENDBRANCH   4  13
BRANCH   7  30
ATOM     30  N   UNL     1     -40.209  45.960  17.969  1.00  0.00    -0.319 N 
ATOM     31  C   UNL     1     -41.318  45.774  18.805  1.00  0.00     0.248 C 
ATOM     32  O   UNL     1     -42.082  46.637  19.222  1.00  0.00    -0.270 OA
ATOM     33  H   UNL     1     -39.671  45.134  17.713  1.00  0.00     0.170 HD
BRANCH  31  34
ATOM     34  C   UNL     1     -41.497  44.337  19.170  1.00  0.00     0.068 C 
ATOM     35  C   UNL     1     -42.628  43.919  19.756  1.00  0.00    -0.006 C 
BRANCH  35  36
ATOM     36  C   UNL     1     -42.875  42.491  20.139  1.00  0.00     0.111 C 
BRANCH  36  37
ATOM     37  N   UNL     1     -44.160  42.332  20.811  1.00  0.00    -0.306 NA
ATOM     38  C   UNL     1     -45.260  42.657  19.902  1.00  0.00     0.105 C 
ATOM     39  C   UNL     1     -44.224  43.173  22.007  1.00  0.00     0.105 C 
ENDBRANCH  36  37
ENDBRANCH  35  36
ENDBRANCH  31  34
ENDBRANCH   7  30
BRANCH   8  40
ATOM     40  O   UNL     1     -38.271  47.498  19.295  1.00  0.00    -0.492 OA
BRANCH  40  41
ATOM     41  C   UNL     1     -38.748  48.170  20.457  1.00  0.00     0.226 C 
ATOM     42  C   UNL     1     -39.174  47.141  21.483  1.00  0.00     0.049 C 
ENDBRANCH  40  41
ENDBRANCH   8  40
TORSDOF 11
ENDMDL
MODEL 19
REMARK VINA RESULT:    -7.714      2.678      4.507
REMARK INTER + INTRA:         -14.388
REMARK INTER:                 -12.964
REMARK INTRA:                  -1.424
REMARK UNBOUND:                -1.713
REMARK SMILES CCOc1cc2ncc(C#N)c(Nc3ccc(OCc4ccccn4)c(Cl)c3)c2cc1NC(=O)/C=C/CN(C)C
REMARK SMILES IDX 7 1 11 2 29 3 12 4 6 5 30 6 31 7 4 8 5 9 9 10 8 11 10 12
REMARK SMILES IDX 13 13 14 15 26 16 28 17 17 18 16 19 15 20 27 21 18 22 19 23
REMARK SMILES IDX 20 24 25 25 21 26 24 27 22 28 23 29 32 30 33 31 34 32 35 34
REMARK SMILES IDX 36 35 37 36 38 37 39 38 40 39 3 40 2 41 1 42
REMARK H PARENT 13 14 32 33
ROOT
ATOM      1  N   UNL     1     -45.837  46.324  18.358  1.00  0.00    -0.255 NA
ATOM      2  N   UNL     1     -44.944  47.497  13.785  1.00  0.00    -0.192 NA
ATOM      3  C   UNL     1     -43.438  46.153  18.214  1.00  0.00     0.027 A 
ATOM      4  C   UNL     1     -43.498  46.526  16.865  1.00  0.00     0.068 A 
ATOM      5  C   UNL     1     -44.648  46.063  18.933  1.00  0.00     0.076 A 
ATOM      6  C   UNL     1     -42.214  45.874  18.846  1.00  0.00     0.042 A 
ATOM      7  C   UNL     1     -42.182  45.504  20.188  1.00  0.00     0.084 A 
ATOM      8  C   UNL     1     -43.371  45.414  20.902  1.00  0.00     0.144 A 
ATOM      9  C   UNL     1     -44.587  45.692  20.273  1.00  0.00     0.077 A 
ATOM     10  C   UNL     1     -44.722  46.797  16.269  1.00  0.00     0.094 A 
ATOM     11  C   UNL     1     -45.852  46.683  17.054  1.00  0.00     0.133 A 
ATOM     12  C   UNL     1     -44.845  47.183  14.898  1.00  0.00     0.103 C 
ENDROOT
BRANCH   4  13
ATOM     13  N   UNL     1     -42.314  46.635  16.089  1.00  0.00    -0.354 N 
ATOM     14  H   UNL     1     -42.062  45.763  15.633  1.00  0.00     0.167 HD
BRANCH  13  15
ATOM     15  C   UNL     1     -41.447  47.707  15.834  1.00  0.00     0.040 A 
ATOM     16  C   UNL     1     -40.682  49.491  14.386  1.00  0.00     0.085 A 
ATOM     17  C   UNL     1     -41.544  48.425  14.638  1.00  0.00     0.050 A 
ATOM     18  C   UNL     1     -39.716  49.846  15.328  1.00  0.00     0.138 A 
ATOM     19  C   UNL     1     -39.613  49.133  16.523  1.00  0.00     0.050 A 
ATOM     20  C   UNL     1     -40.476  48.067  16.775  1.00  0.00     0.030 A 
ATOM     21  Cl  UNL     1     -40.831  50.356  12.900  1.00  0.00    -0.080 Cl
BRANCH  18  22
ATOM     22  O   UNL     1     -38.860  50.884  15.108  1.00  0.00    -0.486 OA
BRANCH  22  23
ATOM     23  C   UNL     1     -37.615  50.574  14.485  1.00  0.00     0.285 C 
BRANCH  23  24
ATOM     24  C   UNL     1     -36.591  51.585  14.910  1.00  0.00     0.078 A 
ATOM     25  N   UNL     1     -35.321  51.144  15.013  1.00  0.00    -0.258 NA
ATOM     26  C   UNL     1     -36.994  52.882  15.166  1.00  0.00     0.027 A 
ATOM     27  C   UNL     1     -34.403  52.059  15.395  1.00  0.00     0.111 A 
ATOM     28  C   UNL     1     -36.021  53.795  15.556  1.00  0.00     0.004 A 
ATOM     29  C   UNL     1     -34.698  53.383  15.676  1.00  0.00     0.020 A 
ENDBRANCH  23  24
ENDBRANCH  22  23
ENDBRANCH  18  22
ENDBRANCH  13  15
ENDBRANCH   4  13
BRANCH   7  30
ATOM     30  N   UNL     1     -40.957  45.229  20.799  1.00  0.00    -0.319 N 
ATOM     31  C   UNL     1     -40.218  46.053  21.658  1.00  0.00     0.248 C 
ATOM     32  O   UNL     1     -40.513  47.181  22.035  1.00  0.00    -0.270 OA
ATOM     33  H   UNL     1     -40.571  44.313  20.580  1.00  0.00     0.170 HD
BRANCH  31  34
ATOM     34  C   UNL     1     -38.954  45.393  22.100  1.00  0.00     0.068 C 
ATOM     35  C   UNL     1     -37.778  45.740  21.558  1.00  0.00    -0.006 C 
BRANCH  35  36
ATOM     36  C   UNL     1     -36.473  45.124  21.963  1.00  0.00     0.111 C 
BRANCH  36  37
ATOM     37  N   UNL     1     -35.576  46.110  22.556  1.00  0.00    -0.306 NA
ATOM     38  C   UNL     1     -36.319  47.304  22.959  1.00  0.00     0.105 C 
ATOM     39  C   UNL     1     -34.510  46.466  21.619  1.00  0.00     0.105 C 
ENDBRANCH  36  37
ENDBRANCH  35  36
ENDBRANCH  31  34
ENDBRANCH   7  30
BRANCH   8  40
ATOM     40  O   UNL     1     -43.373  45.054  22.217  1.00  0.00    -0.492 OA
BRANCH  40  41
ATOM     41  C   UNL     1     -44.099  43.877  22.564  1.00  0.00     0.226 C 
ATOM     42  C   UNL     1     -43.363  42.667  22.029  1.00  0.00     0.049 C 
ENDBRANCH  40  41
ENDBRANCH   8  40
TORSDOF 11
ENDMDL
MODEL 20
REMARK VINA RESULT:    -7.707      3.590      8.378
REMARK INTER + INTRA:         -14.376
REMARK INTER:                 -12.417
REMARK INTRA:                  -1.960
REMARK UNBOUND:                -1.713
REMARK SMILES CCOc1cc2ncc(C#N)c(Nc3ccc(OCc4ccccn4)c(Cl)c3)c2cc1NC(=O)/C=C/CN(C)C
REMARK SMILES IDX 7 1 11 2 29 3 12 4 6 5 30 6 31 7 4 8 5 9 9 10 8 11 10 12
REMARK SMILES IDX 13 13 14 15 26 16 28 17 17 18 16 19 15 20 27 21 18 22 19 23
REMARK SMILES IDX 20 24 25 25 21 26 24 27 22 28 23 29 32 30 33 31 34 32 35 34
REMARK SMILES IDX 36 35 37 36 38 37 39 38 40 39 3 40 2 41 1 42
REMARK H PARENT 13 14 32 33
ROOT
ATOM      1  N   UNL     1     -39.640  51.177  13.848  1.00  0.00    -0.255 NA
ATOM      2  N   UNL     1     -35.145  50.732  15.485  1.00  0.00    -0.192 NA
ATOM      3  C   UNL     1     -39.792  49.294  15.343  1.00  0.00     0.027 A 
ATOM      4  C   UNL     1     -38.426  49.417  15.628  1.00  0.00     0.068 A 
ATOM      5  C   UNL     1     -40.367  50.208  14.434  1.00  0.00     0.076 A 
ATOM      6  C   UNL     1     -40.581  48.294  15.938  1.00  0.00     0.042 A 
ATOM      7  C   UNL     1     -41.936  48.193  15.636  1.00  0.00     0.084 A 
ATOM      8  C   UNL     1     -42.508  49.090  14.742  1.00  0.00     0.144 A 
ATOM      9  C   UNL     1     -41.724  50.085  14.152  1.00  0.00     0.077 A 
ATOM     10  C   UNL     1     -37.675  50.416  15.026  1.00  0.00     0.094 A 
ATOM     11  C   UNL     1     -38.324  51.263  14.150  1.00  0.00     0.133 A 
ATOM     12  C   UNL     1     -36.278  50.590  15.278  1.00  0.00     0.103 C 
ENDROOT
BRANCH   4  13
ATOM     13  N   UNL     1     -37.792  48.527  16.535  1.00  0.00    -0.354 N 
ATOM     14  H   UNL     1     -36.854  48.271  16.241  1.00  0.00     0.167 HD
BRANCH  13  15
ATOM     15  C   UNL     1     -38.211  47.953  17.743  1.00  0.00     0.040 A 
ATOM     16  C   UNL     1     -38.863  48.186  20.064  1.00  0.00     0.085 A 
ATOM     17  C   UNL     1     -38.446  48.758  18.863  1.00  0.00     0.050 A 
ATOM     18  C   UNL     1     -39.047  46.805  20.154  1.00  0.00     0.138 A 
ATOM     19  C   UNL     1     -38.814  45.998  19.041  1.00  0.00     0.050 A 
ATOM     20  C   UNL     1     -38.397  46.570  17.840  1.00  0.00     0.030 A 
ATOM     21  Cl  UNL     1     -39.145  49.208  21.425  1.00  0.00    -0.080 Cl
BRANCH  18  22
ATOM     22  O   UNL     1     -39.455  46.220  21.316  1.00  0.00    -0.486 OA
BRANCH  22  23
ATOM     23  C   UNL     1     -40.860  46.156  21.549  1.00  0.00     0.285 C 
BRANCH  23  24
ATOM     24  C   UNL     1     -41.291  44.719  21.542  1.00  0.00     0.078 A 
ATOM     25  N   UNL     1     -41.252  44.076  22.727  1.00  0.00    -0.258 NA
ATOM     26  C   UNL     1     -41.697  44.145  20.352  1.00  0.00     0.027 A 
ATOM     27  C   UNL     1     -41.641  42.783  22.715  1.00  0.00     0.111 A 
ATOM     28  C   UNL     1     -42.091  42.812  20.380  1.00  0.00     0.004 A 
ATOM     29  C   UNL     1     -42.065  42.111  21.581  1.00  0.00     0.020 A 
ENDBRANCH  23  24
ENDBRANCH  22  23
ENDBRANCH  18  22
ENDBRANCH  13  15
ENDBRANCH   4  13
BRANCH   7  30
ATOM     30  N   UNL     1     -42.704  47.193  16.236  1.00  0.00    -0.319 N 
ATOM     31  C   UNL     1     -43.205  47.157  17.544  1.00  0.00     0.248 C 
ATOM     32  O   UNL     1     -43.059  48.008  18.414  1.00  0.00    -0.270 OA
ATOM     33  H   UNL     1     -42.914  46.401  15.632  1.00  0.00     0.170 HD
BRANCH  31  34
ATOM     34  C   UNL     1     -43.981  45.908  17.802  1.00  0.00     0.068 C 
ATOM     35  C   UNL     1     -44.567  45.704  18.991  1.00  0.00    -0.006 C 
BRANCH  35  36
ATOM     36  C   UNL     1     -45.367  44.478  19.312  1.00  0.00     0.111 C 
BRANCH  36  37
ATOM     37  N   UNL     1     -46.091  44.625  20.570  1.00  0.00    -0.306 NA
ATOM     38  C   UNL     1     -46.852  45.875  20.582  1.00  0.00     0.105 C 
ATOM     39  C   UNL     1     -45.167  44.582  21.704  1.00  0.00     0.105 C 
ENDBRANCH  36  37
ENDBRANCH  35  36
ENDBRANCH  31  34
ENDBRANCH   7  30
BRANCH   8  40
ATOM     40  O   UNL     1     -43.832  49.017  14.426  1.00  0.00    -0.492 OA
BRANCH  40  41
ATOM     41  C   UNL     1     -44.217  49.496  13.140  1.00  0.00     0.226 C 
ATOM     42  C   UNL     1     -45.599  48.971  12.812  1.00  0.00     0.049 C 
ENDBRANCH  40  41
ENDBRANCH   8  40
TORSDOF 11
ENDMDL
