MODEL 1
REMARK VINA RESULT:   -10.331      0.000      0.000
REMARK INTER + INTRA:         -18.749
REMARK INTER:                 -16.974
REMARK INTRA:                  -1.775
REMARK UNBOUND:                -1.775
REMARK SMILES CCOc1cc2ncc(C#N)c(Nc3ccc(OCc4ccccn4)c(Cl)c3)c2cc1NC(=O)/C=C/CN(C)C
REMARK SMILES IDX 7 1 11 2 29 3 12 4 6 5 30 6 31 7 4 8 5 9 9 10 8 11 10 12
REMARK SMILES IDX 13 13 14 15 26 16 28 17 17 18 16 19 15 20 27 21 18 22 19 23
REMARK SMILES IDX 20 24 25 25 21 26 24 27 22 28 23 29 32 30 33 31 34 32 35 34
REMARK SMILES IDX 36 35 37 36 38 37 39 38 40 39 3 40 2 41 1 42
REMARK H PARENT 13 14 32 33
ROOT
ATOM      1  N   UNL     1     -41.899  47.237  14.390  1.00  0.00    -0.255 NA
ATOM      2  N   UNL     1     -41.125  51.186  11.764  1.00  0.00    -0.192 NA
ATOM      3  C   UNL     1     -40.503  48.577  15.826  1.00  0.00     0.027 A 
ATOM      4  C   UNL     1     -40.461  49.576  14.844  1.00  0.00     0.068 A 
ATOM      5  C   UNL     1     -41.244  47.408  15.554  1.00  0.00     0.076 A 
ATOM      6  C   UNL     1     -39.832  48.722  17.052  1.00  0.00     0.042 A 
ATOM      7  C   UNL     1     -39.889  47.714  18.011  1.00  0.00     0.084 A 
ATOM      8  C   UNL     1     -40.617  46.560  17.749  1.00  0.00     0.144 A 
ATOM      9  C   UNL     1     -41.285  46.417  16.530  1.00  0.00     0.077 A 
ATOM     10  C   UNL     1     -41.136  49.403  13.644  1.00  0.00     0.094 A 
ATOM     11  C   UNL     1     -41.834  48.225  13.469  1.00  0.00     0.133 A 
ATOM     12  C   UNL     1     -41.130  50.387  12.606  1.00  0.00     0.103 C 
ENDROOT
BRANCH   4  13
ATOM     13  N   UNL     1     -39.733  50.775  15.060  1.00  0.00    -0.354 N 
ATOM     14  H   UNL     1     -40.320  51.538  15.381  1.00  0.00     0.167 HD
BRANCH  13  15
ATOM     15  C   UNL     1     -38.374  51.092  14.921  1.00  0.00     0.040 A 
ATOM     16  C   UNL     1     -36.562  52.691  15.090  1.00  0.00     0.085 A 
ATOM     17  C   UNL     1     -37.914  52.377  15.228  1.00  0.00     0.050 A 
ATOM     18  C   UNL     1     -35.662  51.723  14.643  1.00  0.00     0.138 A 
ATOM     19  C   UNL     1     -36.115  50.440  14.335  1.00  0.00     0.050 A 
ATOM     20  C   UNL     1     -37.467  50.126  14.473  1.00  0.00     0.030 A 
ATOM     21  Cl  UNL     1     -36.029  54.285  15.479  1.00  0.00    -0.080 Cl
BRANCH  18  22
ATOM     22  O   UNL     1     -34.336  52.003  14.499  1.00  0.00    -0.486 OA
BRANCH  22  23
ATOM     23  C   UNL     1     -33.507  51.810  15.644  1.00  0.00     0.285 C 
BRANCH  23  24
ATOM     24  C   UNL     1     -32.078  51.702  15.200  1.00  0.00     0.078 A 
ATOM     25  N   UNL     1     -31.313  50.805  15.855  1.00  0.00    -0.258 NA
ATOM     26  C   UNL     1     -31.633  52.507  14.168  1.00  0.00     0.027 A 
ATOM     27  C   UNL     1     -30.027  50.712  15.450  1.00  0.00     0.111 A 
ATOM     28  C   UNL     1     -30.304  52.383  13.779  1.00  0.00     0.004 A 
ATOM     29  C   UNL     1     -29.480  51.470  14.428  1.00  0.00     0.020 A 
ENDBRANCH  23  24
ENDBRANCH  22  23
ENDBRANCH  18  22
ENDBRANCH  13  15
ENDBRANCH   4  13
BRANCH   7  30
ATOM     30  N   UNL     1     -39.215  47.876  19.223  1.00  0.00    -0.319 N 
ATOM     31  C   UNL     1     -39.752  48.226  20.469  1.00  0.00     0.248 C 
ATOM     32  O   UNL     1     -40.926  48.460  20.727  1.00  0.00    -0.270 OA
ATOM     33  H   UNL     1     -38.211  47.714  19.173  1.00  0.00     0.170 HD
BRANCH  31  34
ATOM     34  C   UNL     1     -38.696  48.297  21.522  1.00  0.00     0.068 C 
ATOM     35  C   UNL     1     -37.800  47.309  21.656  1.00  0.00    -0.006 C 
BRANCH  35  36
ATOM     36  C   UNL     1     -36.711  47.321  22.685  1.00  0.00     0.111 C 
BRANCH  36  37
ATOM     37  N   UNL     1     -35.804  46.190  22.520  1.00  0.00    -0.306 NA
ATOM     38  C   UNL     1     -34.647  46.573  21.711  1.00  0.00     0.105 C 
ATOM     39  C   UNL     1     -36.501  45.058  21.909  1.00  0.00     0.105 C 
ENDBRANCH  36  37
ENDBRANCH  35  36
ENDBRANCH  31  34
ENDBRANCH   7  30
BRANCH   8  40
ATOM     40  O   UNL     1     -40.692  45.555  18.666  1.00  0.00    -0.492 OA
BRANCH  40  41
ATOM     41  C   UNL     1     -41.954  44.910  18.817  1.00  0.00     0.226 C 
ATOM     42  C   UNL     1     -42.717  45.576  19.942  1.00  0.00     0.049 C 
ENDBRANCH  40  41
ENDBRANCH   8  40
TORSDOF 11
ENDMDL
MODEL 2
REMARK VINA RESULT:    -9.801      1.711      2.142
REMARK INTER + INTRA:         -17.879
REMARK INTER:                 -15.963
REMARK INTRA:                  -1.916
REMARK UNBOUND:                -1.775
REMARK SMILES CCOc1cc2ncc(C#N)c(Nc3ccc(OCc4ccccn4)c(Cl)c3)c2cc1NC(=O)/C=C/CN(C)C
REMARK SMILES IDX 7 1 11 2 29 3 12 4 6 5 30 6 31 7 4 8 5 9 9 10 8 11 10 12
REMARK SMILES IDX 13 13 14 15 26 16 28 17 17 18 16 19 15 20 27 21 18 22 19 23
REMARK SMILES IDX 20 24 25 25 21 26 24 27 22 28 23 29 32 30 33 31 34 32 35 34
REMARK SMILES IDX 36 35 37 36 38 37 39 38 40 39 3 40 2 41 1 42
REMARK H PARENT 13 14 32 33
ROOT
ATOM      1  N   UNL     1     -43.589  49.547  14.652  1.00  0.00    -0.255 NA
ATOM      2  N   UNL     1     -40.370  51.014  11.401  1.00  0.00    -0.192 NA
ATOM      3  C   UNL     1     -41.494  48.834  15.605  1.00  0.00     0.027 A 
ATOM      4  C   UNL     1     -40.817  49.369  14.502  1.00  0.00     0.068 A 
ATOM      5  C   UNL     1     -42.900  48.947  15.640  1.00  0.00     0.076 A 
ATOM      6  C   UNL     1     -40.807  48.201  16.655  1.00  0.00     0.042 A 
ATOM      7  C   UNL     1     -41.505  47.677  17.739  1.00  0.00     0.084 A 
ATOM      8  C   UNL     1     -42.890  47.785  17.780  1.00  0.00     0.144 A 
ATOM      9  C   UNL     1     -43.573  48.415  16.736  1.00  0.00     0.077 A 
ATOM     10  C   UNL     1     -41.524  49.990  13.482  1.00  0.00     0.094 A 
ATOM     11  C   UNL     1     -42.898  50.052  13.605  1.00  0.00     0.133 A 
ATOM     12  C   UNL     1     -40.887  50.555  12.333  1.00  0.00     0.103 C 
ENDROOT
BRANCH   4  13
ATOM     13  N   UNL     1     -39.403  49.287  14.410  1.00  0.00    -0.354 N 
ATOM     14  H   UNL     1     -39.091  48.513  13.831  1.00  0.00     0.167 HD
BRANCH  13  15
ATOM     15  C   UNL     1     -38.374  50.069  14.957  1.00  0.00     0.040 A 
ATOM     16  C   UNL     1     -37.526  52.222  15.671  1.00  0.00     0.085 A 
ATOM     17  C   UNL     1     -38.549  51.446  15.127  1.00  0.00     0.050 A 
ATOM     18  C   UNL     1     -36.321  51.626  16.046  1.00  0.00     0.138 A 
ATOM     19  C   UNL     1     -36.141  50.254  15.878  1.00  0.00     0.050 A 
ATOM     20  C   UNL     1     -37.164  49.477  15.334  1.00  0.00     0.030 A 
ATOM     21  Cl  UNL     1     -37.776  53.918  15.868  1.00  0.00    -0.080 Cl
BRANCH  18  22
ATOM     22  O   UNL     1     -35.304  52.361  16.580  1.00  0.00    -0.486 OA
BRANCH  22  23
ATOM     23  C   UNL     1     -34.515  53.127  15.673  1.00  0.00     0.285 C 
BRANCH  23  24
ATOM     24  C   UNL     1     -33.202  52.432  15.462  1.00  0.00     0.078 A 
ATOM     25  N   UNL     1     -32.983  51.926  14.231  1.00  0.00    -0.258 NA
ATOM     26  C   UNL     1     -32.308  52.352  16.513  1.00  0.00     0.027 A 
ATOM     27  C   UNL     1     -31.799  51.302  14.047  1.00  0.00     0.111 A 
ATOM     28  C   UNL     1     -31.100  51.704  16.285  1.00  0.00     0.004 A 
ATOM     29  C   UNL     1     -30.833  51.166  15.031  1.00  0.00     0.020 A 
ENDBRANCH  23  24
ENDBRANCH  22  23
ENDBRANCH  18  22
ENDBRANCH  13  15
ENDBRANCH   4  13
BRANCH   7  30
ATOM     30  N   UNL     1     -40.804  47.050  18.773  1.00  0.00    -0.319 N 
ATOM     31  C   UNL     1     -40.499  45.690  18.906  1.00  0.00     0.248 C 
ATOM     32  O   UNL     1     -40.795  44.787  18.132  1.00  0.00    -0.270 OA
ATOM     33  H   UNL     1     -40.486  47.677  19.509  1.00  0.00     0.170 HD
BRANCH  31  34
ATOM     34  C   UNL     1     -39.733  45.418  20.158  1.00  0.00     0.068 C 
ATOM     35  C   UNL     1     -38.436  45.745  20.247  1.00  0.00    -0.006 C 
BRANCH  35  36
ATOM     36  C   UNL     1     -37.611  45.509  21.477  1.00  0.00     0.111 C 
BRANCH  36  37
ATOM     37  N   UNL     1     -36.570  46.519  21.626  1.00  0.00    -0.306 NA
ATOM     38  C   UNL     1     -35.258  45.887  21.767  1.00  0.00     0.105 C 
ATOM     39  C   UNL     1     -36.847  47.378  22.778  1.00  0.00     0.105 C 
ENDBRANCH  36  37
ENDBRANCH  35  36
ENDBRANCH  31  34
ENDBRANCH   7  30
BRANCH   8  40
ATOM     40  O   UNL     1     -43.602  47.281  18.828  1.00  0.00    -0.492 OA
BRANCH  40  41
ATOM     41  C   UNL     1     -44.687  46.412  18.514  1.00  0.00     0.226 C 
ATOM     42  C   UNL     1     -44.186  44.983  18.498  1.00  0.00     0.049 C 
ENDBRANCH  40  41
ENDBRANCH   8  40
TORSDOF 11
ENDMDL
MODEL 3
REMARK VINA RESULT:    -8.653      2.501      3.145
REMARK INTER + INTRA:         -15.992
REMARK INTER:                 -14.417
REMARK INTRA:                  -1.575
REMARK UNBOUND:                -1.775
REMARK SMILES CCOc1cc2ncc(C#N)c(Nc3ccc(OCc4ccccn4)c(Cl)c3)c2cc1NC(=O)/C=C/CN(C)C
REMARK SMILES IDX 7 1 11 2 29 3 12 4 6 5 30 6 31 7 4 8 5 9 9 10 8 11 10 12
REMARK SMILES IDX 13 13 14 15 26 16 28 17 17 18 16 19 15 20 27 21 18 22 19 23
REMARK SMILES IDX 20 24 25 25 21 26 24 27 22 28 23 29 32 30 33 31 34 32 35 34
REMARK SMILES IDX 36 35 37 36 38 37 39 38 40 39 3 40 2 41 1 42
REMARK H PARENT 13 14 32 33
ROOT
ATOM      1  N   UNL     1     -43.317  49.889  13.572  1.00  0.00    -0.255 NA
ATOM      2  N   UNL     1     -39.354  51.380  11.300  1.00  0.00    -0.192 NA
ATOM      3  C   UNL     1     -41.543  49.038  14.963  1.00  0.00     0.027 A 
ATOM      4  C   UNL     1     -40.599  49.599  14.093  1.00  0.00     0.068 A 
ATOM      5  C   UNL     1     -42.910  49.209  14.660  1.00  0.00     0.076 A 
ATOM      6  C   UNL     1     -41.154  48.322  16.108  1.00  0.00     0.042 A 
ATOM      7  C   UNL     1     -42.112  47.774  16.956  1.00  0.00     0.084 A 
ATOM      8  C   UNL     1     -43.461  47.939  16.663  1.00  0.00     0.144 A 
ATOM      9  C   UNL     1     -43.847  48.651  15.525  1.00  0.00     0.077 A 
ATOM     10  C   UNL     1     -41.015  50.302  12.970  1.00  0.00     0.094 A 
ATOM     11  C   UNL     1     -42.374  50.417  12.758  1.00  0.00     0.133 A 
ATOM     12  C   UNL     1     -40.099  50.897  12.048  1.00  0.00     0.103 C 
ENDROOT
BRANCH   4  13
ATOM     13  N   UNL     1     -39.209  49.461  14.345  1.00  0.00    -0.354 N 
ATOM     14  H   UNL     1     -38.912  48.490  14.385  1.00  0.00     0.167 HD
BRANCH  13  15
ATOM     15  C   UNL     1     -38.186  50.401  14.537  1.00  0.00     0.040 A 
ATOM     16  C   UNL     1     -37.444  52.563  15.338  1.00  0.00     0.085 A 
ATOM     17  C   UNL     1     -38.462  51.629  15.146  1.00  0.00     0.050 A 
ATOM     18  C   UNL     1     -36.144  52.275  14.920  1.00  0.00     0.138 A 
ATOM     19  C   UNL     1     -35.863  51.052  14.312  1.00  0.00     0.050 A 
ATOM     20  C   UNL     1     -36.881  50.118  14.120  1.00  0.00     0.030 A 
ATOM     21  Cl  UNL     1     -37.820  54.068  16.093  1.00  0.00    -0.080 Cl
BRANCH  18  22
ATOM     22  O   UNL     1     -35.131  53.169  15.095  1.00  0.00    -0.486 OA
BRANCH  22  23
ATOM     23  C   UNL     1     -34.267  52.957  16.211  1.00  0.00     0.285 C 
BRANCH  23  24
ATOM     24  C   UNL     1     -32.905  52.578  15.709  1.00  0.00     0.078 A 
ATOM     25  N   UNL     1     -32.588  52.994  14.466  1.00  0.00    -0.258 NA
ATOM     26  C   UNL     1     -32.070  51.841  16.527  1.00  0.00     0.027 A 
ATOM     27  C   UNL     1     -31.360  52.650  14.020  1.00  0.00     0.111 A 
ATOM     28  C   UNL     1     -30.814  51.506  16.033  1.00  0.00     0.004 A 
ATOM     29  C   UNL     1     -30.445  51.915  14.756  1.00  0.00     0.020 A 
ENDBRANCH  23  24
ENDBRANCH  22  23
ENDBRANCH  18  22
ENDBRANCH  13  15
ENDBRANCH   4  13
BRANCH   7  30
ATOM     30  N   UNL     1     -41.707  47.065  18.089  1.00  0.00    -0.319 N 
ATOM     31  C   UNL     1     -41.274  47.579  19.318  1.00  0.00     0.248 C 
ATOM     32  O   UNL     1     -41.168  48.759  19.629  1.00  0.00    -0.270 OA
ATOM     33  H   UNL     1     -41.737  46.052  17.988  1.00  0.00     0.170 HD
BRANCH  31  34
ATOM     34  C   UNL     1     -40.927  46.489  20.278  1.00  0.00     0.068 C 
ATOM     35  C   UNL     1     -41.464  45.268  20.145  1.00  0.00    -0.006 C 
BRANCH  35  36
ATOM     36  C   UNL     1     -41.151  44.128  21.067  1.00  0.00     0.111 C 
BRANCH  36  37
ATOM     37  N   UNL     1     -42.353  43.383  21.425  1.00  0.00    -0.306 NA
ATOM     38  C   UNL     1     -42.512  43.333  22.879  1.00  0.00     0.105 C 
ATOM     39  C   UNL     1     -42.304  42.029  20.872  1.00  0.00     0.105 C 
ENDBRANCH  36  37
ENDBRANCH  35  36
ENDBRANCH  31  34
ENDBRANCH   7  30
BRANCH   8  40
ATOM     40  O   UNL     1     -44.423  47.413  17.473  1.00  0.00    -0.492 OA
BRANCH  40  41
ATOM     41  C   UNL     1     -45.018  46.186  17.058  1.00  0.00     0.226 C 
ATOM     42  C   UNL     1     -44.817  45.149  18.143  1.00  0.00     0.049 C 
ENDBRANCH  40  41
ENDBRANCH   8  40
TORSDOF 11
ENDMDL
MODEL 4
REMARK VINA RESULT:    -8.458      3.603      7.596
REMARK INTER + INTRA:         -15.671
REMARK INTER:                 -14.221
REMARK INTRA:                  -1.450
REMARK UNBOUND:                -1.775
REMARK SMILES CCOc1cc2ncc(C#N)c(Nc3ccc(OCc4ccccn4)c(Cl)c3)c2cc1NC(=O)/C=C/CN(C)C
REMARK SMILES IDX 7 1 11 2 29 3 12 4 6 5 30 6 31 7 4 8 5 9 9 10 8 11 10 12
REMARK SMILES IDX 13 13 14 15 26 16 28 17 17 18 16 19 15 20 27 21 18 22 19 23
REMARK SMILES IDX 20 24 25 25 21 26 24 27 22 28 23 29 32 30 33 31 34 32 35 34
REMARK SMILES IDX 36 35 37 36 38 37 39 38 40 39 3 40 2 41 1 42
REMARK H PARENT 13 14 32 33
ROOT
ATOM      1  N   UNL     1     -43.041  45.636  19.531  1.00  0.00    -0.255 NA
ATOM      2  N   UNL     1     -38.254  45.228  19.616  1.00  0.00    -0.192 NA
ATOM      3  C   UNL     1     -42.383  46.537  17.396  1.00  0.00     0.027 A 
ATOM      4  C   UNL     1     -41.041  46.294  17.712  1.00  0.00     0.068 A 
ATOM      5  C   UNL     1     -43.365  46.189  18.347  1.00  0.00     0.076 A 
ATOM      6  C   UNL     1     -42.757  47.113  16.169  1.00  0.00     0.042 A 
ATOM      7  C   UNL     1     -44.099  47.345  15.879  1.00  0.00     0.084 A 
ATOM      8  C   UNL     1     -45.070  47.004  16.812  1.00  0.00     0.144 A 
ATOM      9  C   UNL     1     -44.698  46.431  18.031  1.00  0.00     0.077 A 
ATOM     10  C   UNL     1     -40.704  45.723  18.932  1.00  0.00     0.094 A 
ATOM     11  C   UNL     1     -41.734  45.415  19.798  1.00  0.00     0.133 A 
ATOM     12  C   UNL     1     -39.352  45.450  19.310  1.00  0.00     0.103 C 
ENDROOT
BRANCH   4  13
ATOM     13  N   UNL     1     -40.008  46.623  16.796  1.00  0.00    -0.354 N 
ATOM     14  H   UNL     1     -39.718  45.831  16.230  1.00  0.00     0.167 HD
BRANCH  13  15
ATOM     15  C   UNL     1     -39.331  47.821  16.527  1.00  0.00     0.040 A 
ATOM     16  C   UNL     1     -39.188  49.936  15.356  1.00  0.00     0.085 A 
ATOM     17  C   UNL     1     -39.863  48.745  15.622  1.00  0.00     0.050 A 
ATOM     18  C   UNL     1     -37.977  50.210  15.991  1.00  0.00     0.138 A 
ATOM     19  C   UNL     1     -37.440  49.292  16.894  1.00  0.00     0.050 A 
ATOM     20  C   UNL     1     -38.115  48.100  17.160  1.00  0.00     0.030 A 
ATOM     21  Cl  UNL     1     -39.875  51.055  14.236  1.00  0.00    -0.080 Cl
BRANCH  18  22
ATOM     22  O   UNL     1     -37.297  51.366  15.750  1.00  0.00    -0.486 OA
BRANCH  22  23
ATOM     23  C   UNL     1     -36.348  51.348  14.684  1.00  0.00     0.285 C 
BRANCH  23  24
ATOM     24  C   UNL     1     -35.016  51.795  15.209  1.00  0.00     0.078 A 
ATOM     25  N   UNL     1     -33.999  51.813  14.322  1.00  0.00    -0.258 NA
ATOM     26  C   UNL     1     -34.905  52.157  16.537  1.00  0.00     0.027 A 
ATOM     27  C   UNL     1     -32.802  52.217  14.800  1.00  0.00     0.111 A 
ATOM     28  C   UNL     1     -33.657  52.568  16.992  1.00  0.00     0.004 A 
ATOM     29  C   UNL     1     -32.580  52.601  16.112  1.00  0.00     0.020 A 
ENDBRANCH  23  24
ENDBRANCH  22  23
ENDBRANCH  18  22
ENDBRANCH  13  15
ENDBRANCH   4  13
BRANCH   7  30
ATOM     30  N   UNL     1     -44.451  47.919  14.656  1.00  0.00    -0.319 N 
ATOM     31  C   UNL     1     -43.926  49.074  14.062  1.00  0.00     0.248 C 
ATOM     32  O   UNL     1     -43.052  49.805  14.513  1.00  0.00    -0.270 OA
ATOM     33  H   UNL     1     -45.180  47.420  14.149  1.00  0.00     0.170 HD
BRANCH  31  34
ATOM     34  C   UNL     1     -44.571  49.357  12.745  1.00  0.00     0.068 C 
ATOM     35  C   UNL     1     -45.906  49.424  12.641  1.00  0.00    -0.006 C 
BRANCH  35  36
ATOM     36  C   UNL     1     -46.616  49.713  11.352  1.00  0.00     0.111 C 
BRANCH  36  37
ATOM     37  N   UNL     1     -47.225  51.038  11.362  1.00  0.00    -0.306 NA
ATOM     38  C   UNL     1     -48.677  50.934  11.512  1.00  0.00     0.105 C 
ATOM     39  C   UNL     1     -46.891  51.767  10.138  1.00  0.00     0.105 C 
ENDBRANCH  36  37
ENDBRANCH  35  36
ENDBRANCH  31  34
ENDBRANCH   7  30
BRANCH   8  40
ATOM     40  O   UNL     1     -46.392  47.220  16.559  1.00  0.00    -0.492 OA
BRANCH  40  41
ATOM     41  C   UNL     1     -47.050  46.282  15.710  1.00  0.00     0.226 C 
ATOM     42  C   UNL     1     -48.023  47.022  14.818  1.00  0.00     0.049 C 
ENDBRANCH  40  41
ENDBRANCH   8  40
TORSDOF 11
ENDMDL
MODEL 5
REMARK VINA RESULT:    -8.412      3.515      7.360
REMARK INTER + INTRA:         -15.596
REMARK INTER:                 -14.897
REMARK INTRA:                  -0.699
REMARK UNBOUND:                -1.775
REMARK SMILES CCOc1cc2ncc(C#N)c(Nc3ccc(OCc4ccccn4)c(Cl)c3)c2cc1NC(=O)/C=C/CN(C)C
REMARK SMILES IDX 7 1 11 2 29 3 12 4 6 5 30 6 31 7 4 8 5 9 9 10 8 11 10 12
REMARK SMILES IDX 13 13 14 15 26 16 28 17 17 18 16 19 15 20 27 21 18 22 19 23
REMARK SMILES IDX 20 24 25 25 21 26 24 27 22 28 23 29 32 30 33 31 34 32 35 34
REMARK SMILES IDX 36 35 37 36 38 37 39 38 40 39 3 40 2 41 1 42
REMARK H PARENT 13 14 32 33
ROOT
ATOM      1  N   UNL     1     -40.976  46.459  17.417  1.00  0.00    -0.255 NA
ATOM      2  N   UNL     1     -37.354  49.424  18.501  1.00  0.00    -0.192 NA
ATOM      3  C   UNL     1     -41.258  48.257  15.839  1.00  0.00     0.027 A 
ATOM      4  C   UNL     1     -40.137  48.900  16.379  1.00  0.00     0.068 A 
ATOM      5  C   UNL     1     -41.649  47.021  16.396  1.00  0.00     0.076 A 
ATOM      6  C   UNL     1     -41.984  48.816  14.772  1.00  0.00     0.042 A 
ATOM      7  C   UNL     1     -43.095  48.157  14.255  1.00  0.00     0.084 A 
ATOM      8  C   UNL     1     -43.485  46.939  14.799  1.00  0.00     0.144 A 
ATOM      9  C   UNL     1     -42.763  46.384  15.859  1.00  0.00     0.077 A 
ATOM     10  C   UNL     1     -39.440  48.322  17.431  1.00  0.00     0.094 A 
ATOM     11  C   UNL     1     -39.898  47.110  17.909  1.00  0.00     0.133 A 
ATOM     12  C   UNL     1     -38.289  48.930  18.022  1.00  0.00     0.103 C 
ENDROOT
BRANCH   4  13
ATOM     13  N   UNL     1     -39.695  50.145  15.861  1.00  0.00    -0.354 N 
ATOM     14  H   UNL     1     -40.445  50.825  15.780  1.00  0.00     0.167 HD
BRANCH  13  15
ATOM     15  C   UNL     1     -38.434  50.605  15.453  1.00  0.00     0.040 A 
ATOM     16  C   UNL     1     -36.829  52.403  15.217  1.00  0.00     0.085 A 
ATOM     17  C   UNL     1     -38.083  51.948  15.623  1.00  0.00     0.050 A 
ATOM     18  C   UNL     1     -35.919  51.518  14.638  1.00  0.00     0.138 A 
ATOM     19  C   UNL     1     -36.263  50.178  14.464  1.00  0.00     0.050 A 
ATOM     20  C   UNL     1     -37.518  49.723  14.870  1.00  0.00     0.030 A 
ATOM     21  Cl  UNL     1     -36.428  54.066  15.444  1.00  0.00    -0.080 Cl
BRANCH  18  22
ATOM     22  O   UNL     1     -34.686  51.937  14.232  1.00  0.00    -0.486 OA
BRANCH  22  23
ATOM     23  C   UNL     1     -33.711  52.155  15.250  1.00  0.00     0.285 C 
BRANCH  23  24
ATOM     24  C   UNL     1     -32.344  52.115  14.633  1.00  0.00     0.078 A 
ATOM     25  N   UNL     1     -32.272  51.662  13.365  1.00  0.00    -0.258 NA
ATOM     26  C   UNL     1     -31.259  52.536  15.378  1.00  0.00     0.027 A 
ATOM     27  C   UNL     1     -31.039  51.628  12.815  1.00  0.00     0.111 A 
ATOM     28  C   UNL     1     -30.006  52.487  14.778  1.00  0.00     0.004 A 
ATOM     29  C   UNL     1     -29.886  52.026  13.471  1.00  0.00     0.020 A 
ENDBRANCH  23  24
ENDBRANCH  22  23
ENDBRANCH  18  22
ENDBRANCH  13  15
ENDBRANCH   4  13
BRANCH   7  30
ATOM     30  N   UNL     1     -43.804  48.728  13.196  1.00  0.00    -0.319 N 
ATOM     31  C   UNL     1     -45.121  49.207  13.198  1.00  0.00     0.248 C 
ATOM     32  O   UNL     1     -45.904  49.212  14.141  1.00  0.00    -0.270 OA
ATOM     33  H   UNL     1     -43.282  48.795  12.325  1.00  0.00     0.170 HD
BRANCH  31  34
ATOM     34  C   UNL     1     -45.513  49.744  11.861  1.00  0.00     0.068 C 
ATOM     35  C   UNL     1     -46.589  50.533  11.734  1.00  0.00    -0.006 C 
BRANCH  35  36
ATOM     36  C   UNL     1     -47.032  51.113  10.424  1.00  0.00     0.111 C 
BRANCH  36  37
ATOM     37  N   UNL     1     -48.115  52.074  10.603  1.00  0.00    -0.306 NA
ATOM     38  C   UNL     1     -48.792  51.854  11.881  1.00  0.00     0.105 C 
ATOM     39  C   UNL     1     -49.071  51.983   9.498  1.00  0.00     0.105 C 
ENDBRANCH  36  37
ENDBRANCH  35  36
ENDBRANCH  31  34
ENDBRANCH   7  30
BRANCH   8  40
ATOM     40  O   UNL     1     -44.569  46.270  14.315  1.00  0.00    -0.492 OA
BRANCH  40  41
ATOM     41  C   UNL     1     -45.506  45.780  15.270  1.00  0.00     0.226 C 
ATOM     42  C   UNL     1     -46.891  45.795  14.657  1.00  0.00     0.049 C 
ENDBRANCH  40  41
ENDBRANCH   8  40
TORSDOF 11
ENDMDL
MODEL 6
REMARK VINA RESULT:    -8.317      1.910      2.272
REMARK INTER + INTRA:         -15.440
REMARK INTER:                 -14.862
REMARK INTRA:                  -0.578
REMARK UNBOUND:                -1.775
REMARK SMILES CCOc1cc2ncc(C#N)c(Nc3ccc(OCc4ccccn4)c(Cl)c3)c2cc1NC(=O)/C=C/CN(C)C
REMARK SMILES IDX 7 1 11 2 29 3 12 4 6 5 30 6 31 7 4 8 5 9 9 10 8 11 10 12
REMARK SMILES IDX 13 13 14 15 26 16 28 17 17 18 16 19 15 20 27 21 18 22 19 23
REMARK SMILES IDX 20 24 25 25 21 26 24 27 22 28 23 29 32 30 33 31 34 32 35 34
REMARK SMILES IDX 36 35 37 36 38 37 39 38 40 39 3 40 2 41 1 42
REMARK H PARENT 13 14 32 33
ROOT
ATOM      1  N   UNL     1     -42.189  48.032  13.187  1.00  0.00    -0.255 NA
ATOM      2  N   UNL     1     -40.122  51.972  11.373  1.00  0.00    -0.192 NA
ATOM      3  C   UNL     1     -41.062  48.978  15.094  1.00  0.00     0.027 A 
ATOM      4  C   UNL     1     -40.596  50.027  14.292  1.00  0.00     0.068 A 
ATOM      5  C   UNL     1     -41.866  47.988  14.493  1.00  0.00     0.076 A 
ATOM      6  C   UNL     1     -40.745  48.901  16.462  1.00  0.00     0.042 A 
ATOM      7  C   UNL     1     -41.220  47.847  17.237  1.00  0.00     0.084 A 
ATOM      8  C   UNL     1     -42.013  46.868  16.650  1.00  0.00     0.144 A 
ATOM      9  C   UNL     1     -42.328  46.945  15.291  1.00  0.00     0.077 A 
ATOM     10  C   UNL     1     -40.928  50.076  12.945  1.00  0.00     0.094 A 
ATOM     11  C   UNL     1     -41.720  49.062  12.446  1.00  0.00     0.133 A 
ATOM     12  C   UNL     1     -40.483  51.122  12.077  1.00  0.00     0.103 C 
ENDROOT
BRANCH   4  13
ATOM     13  N   UNL     1     -39.783  51.054  14.840  1.00  0.00    -0.354 N 
ATOM     14  H   UNL     1     -40.317  51.873  15.115  1.00  0.00     0.167 HD
BRANCH  13  15
ATOM     15  C   UNL     1     -38.403  51.142  15.074  1.00  0.00     0.040 A 
ATOM     16  C   UNL     1     -36.408  52.477  15.397  1.00  0.00     0.085 A 
ATOM     17  C   UNL     1     -37.781  52.391  15.164  1.00  0.00     0.050 A 
ATOM     18  C   UNL     1     -35.650  51.314  15.540  1.00  0.00     0.138 A 
ATOM     19  C   UNL     1     -36.265  50.066  15.450  1.00  0.00     0.050 A 
ATOM     20  C   UNL     1     -37.637  49.980  15.217  1.00  0.00     0.030 A 
ATOM     21  Cl  UNL     1     -35.673  54.034  15.504  1.00  0.00    -0.080 Cl
BRANCH  18  22
ATOM     22  O   UNL     1     -34.307  51.369  15.769  1.00  0.00    -0.486 OA
BRANCH  22  23
ATOM     23  C   UNL     1     -33.514  52.054  14.801  1.00  0.00     0.285 C 
BRANCH  23  24
ATOM     24  C   UNL     1     -32.087  51.615  14.940  1.00  0.00     0.078 A 
ATOM     25  N   UNL     1     -31.385  51.488  13.795  1.00  0.00    -0.258 NA
ATOM     26  C   UNL     1     -31.579  51.371  16.201  1.00  0.00     0.027 A 
ATOM     27  C   UNL     1     -30.100  51.092  13.926  1.00  0.00     0.111 A 
ATOM     28  C   UNL     1     -30.252  50.966  16.296  1.00  0.00     0.004 A 
ATOM     29  C   UNL     1     -29.492  50.822  15.140  1.00  0.00     0.020 A 
ENDBRANCH  23  24
ENDBRANCH  22  23
ENDBRANCH  18  22
ENDBRANCH  13  15
ENDBRANCH   4  13
BRANCH   7  30
ATOM     30  N   UNL     1     -40.894  47.787  18.593  1.00  0.00    -0.319 N 
ATOM     31  C   UNL     1     -39.662  48.070  19.197  1.00  0.00     0.248 C 
ATOM     32  O   UNL     1     -38.630  48.426  18.640  1.00  0.00    -0.270 OA
ATOM     33  H   UNL     1     -41.659  47.500  19.200  1.00  0.00     0.170 HD
BRANCH  31  34
ATOM     34  C   UNL     1     -39.720  47.885  20.678  1.00  0.00     0.068 C 
ATOM     35  C   UNL     1     -40.064  46.701  21.204  1.00  0.00    -0.006 C 
BRANCH  35  36
ATOM     36  C   UNL     1     -40.133  46.446  22.679  1.00  0.00     0.111 C 
BRANCH  36  37
ATOM     37  N   UNL     1     -41.200  45.508  23.012  1.00  0.00    -0.306 NA
ATOM     38  C   UNL     1     -40.964  44.214  22.370  1.00  0.00     0.105 C 
ATOM     39  C   UNL     1     -42.501  46.045  22.611  1.00  0.00     0.105 C 
ENDBRANCH  36  37
ENDBRANCH  35  36
ENDBRANCH  31  34
ENDBRANCH   7  30
BRANCH   8  40
ATOM     40  O   UNL     1     -42.493  45.823  17.382  1.00  0.00    -0.492 OA
BRANCH  40  41
ATOM     41  C   UNL     1     -41.534  44.999  18.039  1.00  0.00     0.226 C 
ATOM     42  C   UNL     1     -42.256  44.045  18.967  1.00  0.00     0.049 C 
ENDBRANCH  40  41
ENDBRANCH   8  40
TORSDOF 11
ENDMDL
MODEL 7
REMARK VINA RESULT:    -8.289      2.280      3.294
REMARK INTER + INTRA:         -15.394
REMARK INTER:                 -14.114
REMARK INTRA:                  -1.280
REMARK UNBOUND:                -1.775
REMARK SMILES CCOc1cc2ncc(C#N)c(Nc3ccc(OCc4ccccn4)c(Cl)c3)c2cc1NC(=O)/C=C/CN(C)C
REMARK SMILES IDX 7 1 11 2 29 3 12 4 6 5 30 6 31 7 4 8 5 9 9 10 8 11 10 12
REMARK SMILES IDX 13 13 14 15 26 16 28 17 17 18 16 19 15 20 27 21 18 22 19 23
REMARK SMILES IDX 20 24 25 25 21 26 24 27 22 28 23 29 32 30 33 31 34 32 35 34
REMARK SMILES IDX 36 35 37 36 38 37 39 38 40 39 3 40 2 41 1 42
REMARK H PARENT 13 14 32 33
ROOT
ATOM      1  N   UNL     1     -45.549  47.597  16.420  1.00  0.00    -0.255 NA
ATOM      2  N   UNL     1     -44.261  49.771  12.333  1.00  0.00    -0.192 NA
ATOM      3  C   UNL     1     -43.153  47.348  16.406  1.00  0.00     0.027 A 
ATOM      4  C   UNL     1     -43.094  48.031  15.185  1.00  0.00     0.068 A 
ATOM      5  C   UNL     1     -44.418  47.150  16.997  1.00  0.00     0.076 A 
ATOM      6  C   UNL     1     -41.992  46.868  17.037  1.00  0.00     0.042 A 
ATOM      7  C   UNL     1     -42.078  46.191  18.250  1.00  0.00     0.084 A 
ATOM      8  C   UNL     1     -43.322  45.992  18.838  1.00  0.00     0.144 A 
ATOM      9  C   UNL     1     -44.475  46.470  18.210  1.00  0.00     0.077 A 
ATOM     10  C   UNL     1     -44.258  48.495  14.588  1.00  0.00     0.094 A 
ATOM     11  C   UNL     1     -45.450  48.253  15.241  1.00  0.00     0.133 A 
ATOM     12  C   UNL     1     -44.260  49.199  13.343  1.00  0.00     0.103 C 
ENDROOT
BRANCH   4  13
ATOM     13  N   UNL     1     -41.849  48.262  14.542  1.00  0.00    -0.354 N 
ATOM     14  H   UNL     1     -41.751  47.739  13.677  1.00  0.00     0.167 HD
BRANCH  13  15
ATOM     15  C   UNL     1     -40.752  49.071  14.872  1.00  0.00     0.040 A 
ATOM     16  C   UNL     1     -38.777  49.488  16.210  1.00  0.00     0.085 A 
ATOM     17  C   UNL     1     -39.868  48.683  15.883  1.00  0.00     0.050 A 
ATOM     18  C   UNL     1     -38.564  50.686  15.528  1.00  0.00     0.138 A 
ATOM     19  C   UNL     1     -39.443  51.079  14.519  1.00  0.00     0.050 A 
ATOM     20  C   UNL     1     -40.534  50.274  14.192  1.00  0.00     0.030 A 
ATOM     21  Cl  UNL     1     -37.705  48.978  17.462  1.00  0.00    -0.080 Cl
BRANCH  18  22
ATOM     22  O   UNL     1     -37.506  51.492  15.826  1.00  0.00    -0.486 OA
BRANCH  22  23
ATOM     23  C   UNL     1     -36.876  52.162  14.736  1.00  0.00     0.285 C 
BRANCH  23  24
ATOM     24  C   UNL     1     -35.452  52.461  15.103  1.00  0.00     0.078 A 
ATOM     25  N   UNL     1     -34.579  51.439  14.993  1.00  0.00    -0.258 NA
ATOM     26  C   UNL     1     -35.120  53.735  15.522  1.00  0.00     0.027 A 
ATOM     27  C   UNL     1     -33.298  51.714  15.324  1.00  0.00     0.111 A 
ATOM     28  C   UNL     1     -33.792  53.979  15.853  1.00  0.00     0.004 A 
ATOM     29  C   UNL     1     -32.858  52.954  15.755  1.00  0.00     0.020 A 
ENDBRANCH  23  24
ENDBRANCH  22  23
ENDBRANCH  18  22
ENDBRANCH  13  15
ENDBRANCH   4  13
BRANCH   7  30
ATOM     30  N   UNL     1     -40.914  45.720  18.862  1.00  0.00    -0.319 N 
ATOM     31  C   UNL     1     -39.900  46.467  19.476  1.00  0.00     0.248 C 
ATOM     32  O   UNL     1     -39.846  47.686  19.590  1.00  0.00    -0.270 OA
ATOM     33  H   UNL     1     -40.809  44.707  18.849  1.00  0.00     0.170 HD
BRANCH  31  34
ATOM     34  C   UNL     1     -38.818  45.588  20.013  1.00  0.00     0.068 C 
ATOM     35  C   UNL     1     -38.006  46.026  20.985  1.00  0.00    -0.006 C 
BRANCH  35  36
ATOM     36  C   UNL     1     -36.907  45.193  21.574  1.00  0.00     0.111 C 
BRANCH  36  37
ATOM     37  N   UNL     1     -36.031  45.988  22.428  1.00  0.00    -0.306 NA
ATOM     38  C   UNL     1     -36.664  47.263  22.768  1.00  0.00     0.105 C 
ATOM     39  C   UNL     1     -34.743  46.218  21.772  1.00  0.00     0.105 C 
ENDBRANCH  36  37
ENDBRANCH  35  36
ENDBRANCH  31  34
ENDBRANCH   7  30
BRANCH   8  40
ATOM     40  O   UNL     1     -43.439  45.332  20.025  1.00  0.00    -0.492 OA
BRANCH  40  41
ATOM     41  C   UNL     1     -43.287  46.105  21.212  1.00  0.00     0.226 C 
ATOM     42  C   UNL     1     -42.343  45.385  22.152  1.00  0.00     0.049 C 
ENDBRANCH  40  41
ENDBRANCH   8  40
TORSDOF 11
ENDMDL
MODEL 8
REMARK VINA RESULT:    -8.196      3.549      7.589
REMARK INTER + INTRA:         -15.242
REMARK INTER:                 -13.607
REMARK INTRA:                  -1.635
REMARK UNBOUND:                -1.775
REMARK SMILES CCOc1cc2ncc(C#N)c(Nc3ccc(OCc4ccccn4)c(Cl)c3)c2cc1NC(=O)/C=C/CN(C)C
REMARK SMILES IDX 7 1 11 2 29 3 12 4 6 5 30 6 31 7 4 8 5 9 9 10 8 11 10 12
REMARK SMILES IDX 13 13 14 15 26 16 28 17 17 18 16 19 15 20 27 21 18 22 19 23
REMARK SMILES IDX 20 24 25 25 21 26 24 27 22 28 23 29 32 30 33 31 34 32 35 34
REMARK SMILES IDX 36 35 37 36 38 37 39 38 40 39 3 40 2 41 1 42
REMARK H PARENT 13 14 32 33
ROOT
ATOM      1  N   UNL     1     -42.324  47.102  21.469  1.00  0.00    -0.255 NA
ATOM      2  N   UNL     1     -37.631  47.719  20.648  1.00  0.00    -0.192 NA
ATOM      3  C   UNL     1     -42.133  46.706  19.100  1.00  0.00     0.027 A 
ATOM      4  C   UNL     1     -40.755  46.946  19.177  1.00  0.00     0.068 A 
ATOM      5  C   UNL     1     -42.891  46.796  20.286  1.00  0.00     0.076 A 
ATOM      6  C   UNL     1     -42.757  46.383  17.882  1.00  0.00     0.042 A 
ATOM      7  C   UNL     1     -44.128  46.151  17.833  1.00  0.00     0.084 A 
ATOM      8  C   UNL     1     -44.880  46.238  18.999  1.00  0.00     0.144 A 
ATOM      9  C   UNL     1     -44.260  46.558  20.209  1.00  0.00     0.077 A 
ATOM     10  C   UNL     1     -40.168  47.260  20.395  1.00  0.00     0.094 A 
ATOM     11  C   UNL     1     -40.991  47.325  21.501  1.00  0.00     0.133 A 
ATOM     12  C   UNL     1     -38.768  47.514  20.535  1.00  0.00     0.103 C 
ENDROOT
BRANCH   4  13
ATOM     13  N   UNL     1     -39.940  46.869  18.017  1.00  0.00    -0.354 N 
ATOM     14  H   UNL     1     -39.656  45.919  17.799  1.00  0.00     0.167 HD
BRANCH  13  15
ATOM     15  C   UNL     1     -39.467  47.846  17.129  1.00  0.00     0.040 A 
ATOM     16  C   UNL     1     -39.892  49.542  15.453  1.00  0.00     0.085 A 
ATOM     17  C   UNL     1     -40.363  48.571  16.336  1.00  0.00     0.050 A 
ATOM     18  C   UNL     1     -38.523  49.795  15.358  1.00  0.00     0.138 A 
ATOM     19  C   UNL     1     -37.625  49.075  16.146  1.00  0.00     0.050 A 
ATOM     20  C   UNL     1     -38.096  48.103  17.029  1.00  0.00     0.030 A 
ATOM     21  Cl  UNL     1     -41.024  50.418  14.490  1.00  0.00    -0.080 Cl
BRANCH  18  22
ATOM     22  O   UNL     1     -38.035  50.739  14.503  1.00  0.00    -0.486 OA
BRANCH  22  23
ATOM     23  C   UNL     1     -36.683  50.586  14.076  1.00  0.00     0.285 C 
BRANCH  23  24
ATOM     24  C   UNL     1     -35.853  51.678  14.682  1.00  0.00     0.078 A 
ATOM     25  N   UNL     1     -34.533  51.429  14.806  1.00  0.00    -0.258 NA
ATOM     26  C   UNL     1     -36.468  52.853  15.071  1.00  0.00     0.027 A 
ATOM     27  C   UNL     1     -33.790  52.416  15.353  1.00  0.00     0.111 A 
ATOM     28  C   UNL     1     -35.671  53.846  15.629  1.00  0.00     0.004 A 
ATOM     29  C   UNL     1     -34.305  53.630  15.776  1.00  0.00     0.020 A 
ENDBRANCH  23  24
ENDBRANCH  22  23
ENDBRANCH  18  22
ENDBRANCH  13  15
ENDBRANCH   4  13
BRANCH   7  30
ATOM     30  N   UNL     1     -44.731  45.833  16.614  1.00  0.00    -0.319 N 
ATOM     31  C   UNL     1     -45.262  46.710  15.660  1.00  0.00     0.248 C 
ATOM     32  O   UNL     1     -45.298  47.934  15.720  1.00  0.00    -0.270 OA
ATOM     33  H   UNL     1     -44.780  44.835  16.414  1.00  0.00     0.170 HD
BRANCH  31  34
ATOM     34  C   UNL     1     -45.820  45.974  14.486  1.00  0.00     0.068 C 
ATOM     35  C   UNL     1     -46.878  46.457  13.820  1.00  0.00    -0.006 C 
BRANCH  35  36
ATOM     36  C   UNL     1     -47.481  45.774  12.630  1.00  0.00     0.111 C 
BRANCH  36  37
ATOM     37  N   UNL     1     -47.495  46.647  11.461  1.00  0.00    -0.306 NA
ATOM     38  C   UNL     1     -47.507  48.052  11.870  1.00  0.00     0.105 C 
ATOM     39  C   UNL     1     -48.651  46.354  10.613  1.00  0.00     0.105 C 
ENDBRANCH  36  37
ENDBRANCH  35  36
ENDBRANCH  31  34
ENDBRANCH   7  30
BRANCH   8  40
ATOM     40  O   UNL     1     -46.225  46.016  18.983  1.00  0.00    -0.492 OA
BRANCH  40  41
ATOM     41  C   UNL     1     -46.879  45.917  20.246  1.00  0.00     0.226 C 
ATOM     42  C   UNL     1     -47.547  44.563  20.351  1.00  0.00     0.049 C 
ENDBRANCH  40  41
ENDBRANCH   8  40
TORSDOF 11
ENDMDL
MODEL 9
REMARK VINA RESULT:    -8.031      3.473      8.198
REMARK INTER + INTRA:         -14.970
REMARK INTER:                 -13.324
REMARK INTRA:                  -1.646
REMARK UNBOUND:                -1.775
REMARK SMILES CCOc1cc2ncc(C#N)c(Nc3ccc(OCc4ccccn4)c(Cl)c3)c2cc1NC(=O)/C=C/CN(C)C
REMARK SMILES IDX 7 1 11 2 29 3 12 4 6 5 30 6 31 7 4 8 5 9 9 10 8 11 10 12
REMARK SMILES IDX 13 13 14 15 26 16 28 17 17 18 16 19 15 20 27 21 18 22 19 23
REMARK SMILES IDX 20 24 25 25 21 26 24 27 22 28 23 29 32 30 33 31 34 32 35 34
REMARK SMILES IDX 36 35 37 36 38 37 39 38 40 39 3 40 2 41 1 42
REMARK H PARENT 13 14 32 33
ROOT
ATOM      1  N   UNL     1     -44.834  47.915  14.005  1.00  0.00    -0.255 NA
ATOM      2  N   UNL     1     -47.314  46.446  17.849  1.00  0.00    -0.192 NA
ATOM      3  C   UNL     1     -43.290  48.283  15.818  1.00  0.00     0.027 A 
ATOM      4  C   UNL     1     -44.243  47.795  16.722  1.00  0.00     0.068 A 
ATOM      5  C   UNL     1     -43.632  48.327  14.451  1.00  0.00     0.076 A 
ATOM      6  C   UNL     1     -42.026  48.721  16.249  1.00  0.00     0.042 A 
ATOM      7  C   UNL     1     -41.097  49.203  15.330  1.00  0.00     0.084 A 
ATOM      8  C   UNL     1     -41.428  49.249  13.981  1.00  0.00     0.144 A 
ATOM      9  C   UNL     1     -42.685  48.813  13.554  1.00  0.00     0.077 A 
ATOM     10  C   UNL     1     -45.483  47.369  16.266  1.00  0.00     0.094 A 
ATOM     11  C   UNL     1     -45.726  47.449  14.909  1.00  0.00     0.133 A 
ATOM     12  C   UNL     1     -46.494  46.860  17.140  1.00  0.00     0.103 C 
ENDROOT
BRANCH   4  13
ATOM     13  N   UNL     1     -43.958  47.726  18.110  1.00  0.00    -0.354 N 
ATOM     14  H   UNL     1     -44.601  48.276  18.671  1.00  0.00     0.167 HD
BRANCH  13  15
ATOM     15  C   UNL     1     -42.972  47.044  18.839  1.00  0.00     0.040 A 
ATOM     16  C   UNL     1     -42.053  44.978  19.705  1.00  0.00     0.085 A 
ATOM     17  C   UNL     1     -43.034  45.654  18.980  1.00  0.00     0.050 A 
ATOM     18  C   UNL     1     -41.005  45.687  20.294  1.00  0.00     0.138 A 
ATOM     19  C   UNL     1     -40.939  47.073  20.157  1.00  0.00     0.050 A 
ATOM     20  C   UNL     1     -41.920  47.750  19.432  1.00  0.00     0.030 A 
ATOM     21  Cl  UNL     1     -42.159  43.262  19.858  1.00  0.00    -0.080 Cl
BRANCH  18  22
ATOM     22  O   UNL     1     -40.033  45.051  21.007  1.00  0.00    -0.486 OA
BRANCH  22  23
ATOM     23  C   UNL     1     -39.633  45.655  22.236  1.00  0.00     0.285 C 
BRANCH  23  24
ATOM     24  C   UNL     1     -38.150  45.879  22.210  1.00  0.00     0.078 A 
ATOM     25  N   UNL     1     -37.380  44.830  22.561  1.00  0.00    -0.258 NA
ATOM     26  C   UNL     1     -37.665  47.118  21.835  1.00  0.00     0.027 A 
ATOM     27  C   UNL     1     -36.045  45.037  22.536  1.00  0.00     0.111 A 
ATOM     28  C   UNL     1     -36.286  47.293  21.820  1.00  0.00     0.004 A 
ATOM     29  C   UNL     1     -35.453  46.237  22.176  1.00  0.00     0.020 A 
ENDBRANCH  23  24
ENDBRANCH  22  23
ENDBRANCH  18  22
ENDBRANCH  13  15
ENDBRANCH   4  13
BRANCH   7  30
ATOM     30  N   UNL     1     -39.846  49.635  15.776  1.00  0.00    -0.319 N 
ATOM     31  C   UNL     1     -38.756  48.851  16.178  1.00  0.00     0.248 C 
ATOM     32  O   UNL     1     -38.700  47.627  16.214  1.00  0.00    -0.270 OA
ATOM     33  H   UNL     1     -39.733  50.646  15.805  1.00  0.00     0.170 HD
BRANCH  31  34
ATOM     34  C   UNL     1     -37.594  49.694  16.588  1.00  0.00     0.068 C 
ATOM     35  C   UNL     1     -37.461  50.944  16.120  1.00  0.00    -0.006 C 
BRANCH  35  36
ATOM     36  C   UNL     1     -36.325  51.845  16.499  1.00  0.00     0.111 C 
BRANCH  36  37
ATOM     37  N   UNL     1     -36.027  52.804  15.440  1.00  0.00    -0.306 NA
ATOM     38  C   UNL     1     -34.707  53.403  15.646  1.00  0.00     0.105 C 
ATOM     39  C   UNL     1     -37.054  53.845  15.385  1.00  0.00     0.105 C 
ENDBRANCH  36  37
ENDBRANCH  35  36
ENDBRANCH  31  34
ENDBRANCH   7  30
BRANCH   8  40
ATOM     40  O   UNL     1     -40.541  49.716  13.057  1.00  0.00    -0.492 OA
BRANCH  40  41
ATOM     41  C   UNL     1     -40.921  50.879  12.326  1.00  0.00     0.226 C 
ATOM     42  C   UNL     1     -39.698  51.454  11.644  1.00  0.00     0.049 C 
ENDBRANCH  40  41
ENDBRANCH   8  40
TORSDOF 11
ENDMDL
MODEL 10
REMARK VINA RESULT:    -8.023      4.515      9.573
REMARK INTER + INTRA:         -14.956
REMARK INTER:                 -13.032
REMARK INTRA:                  -1.925
REMARK UNBOUND:                -1.775
REMARK SMILES CCOc1cc2ncc(C#N)c(Nc3ccc(OCc4ccccn4)c(Cl)c3)c2cc1NC(=O)/C=C/CN(C)C
REMARK SMILES IDX 7 1 11 2 29 3 12 4 6 5 30 6 31 7 4 8 5 9 9 10 8 11 10 12
REMARK SMILES IDX 13 13 14 15 26 16 28 17 17 18 16 19 15 20 27 21 18 22 19 23
REMARK SMILES IDX 20 24 25 25 21 26 24 27 22 28 23 29 32 30 33 31 34 32 35 34
REMARK SMILES IDX 36 35 37 36 38 37 39 38 40 39 3 40 2 41 1 42
REMARK H PARENT 13 14 32 33
ROOT
ATOM      1  N   UNL     1     -38.409  50.464  15.849  1.00  0.00    -0.255 NA
ATOM      2  N   UNL     1     -40.797  51.277  11.760  1.00  0.00    -0.192 NA
ATOM      3  C   UNL     1     -39.905  48.580  15.713  1.00  0.00     0.027 A 
ATOM      4  C   UNL     1     -40.416  49.080  14.509  1.00  0.00     0.068 A 
ATOM      5  C   UNL     1     -38.888  49.314  16.359  1.00  0.00     0.076 A 
ATOM      6  C   UNL     1     -40.381  47.382  16.273  1.00  0.00     0.042 A 
ATOM      7  C   UNL     1     -39.856  46.908  17.472  1.00  0.00     0.084 A 
ATOM      8  C   UNL     1     -38.854  47.625  18.113  1.00  0.00     0.144 A 
ATOM      9  C   UNL     1     -38.380  48.816  17.556  1.00  0.00     0.077 A 
ATOM     10  C   UNL     1     -39.924  50.266  13.980  1.00  0.00     0.094 A 
ATOM     11  C   UNL     1     -38.928  50.913  14.684  1.00  0.00     0.133 A 
ATOM     12  C   UNL     1     -40.406  50.824  12.755  1.00  0.00     0.103 C 
ENDROOT
BRANCH   4  13
ATOM     13  N   UNL     1     -41.440  48.387  13.812  1.00  0.00    -0.354 N 
ATOM     14  H   UNL     1     -41.088  47.866  13.014  1.00  0.00     0.167 HD
BRANCH  13  15
ATOM     15  C   UNL     1     -42.823  48.284  14.022  1.00  0.00     0.040 A 
ATOM     16  C   UNL     1     -44.722  47.117  14.970  1.00  0.00     0.085 A 
ATOM     17  C   UNL     1     -43.347  47.218  14.761  1.00  0.00     0.050 A 
ATOM     18  C   UNL     1     -45.582  48.080  14.440  1.00  0.00     0.138 A 
ATOM     19  C   UNL     1     -45.065  49.144  13.701  1.00  0.00     0.050 A 
ATOM     20  C   UNL     1     -43.690  49.246  13.493  1.00  0.00     0.030 A 
ATOM     21  Cl  UNL     1     -45.334  45.790  15.888  1.00  0.00    -0.080 Cl
BRANCH  18  22
ATOM     22  O   UNL     1     -46.930  48.006  14.629  1.00  0.00    -0.486 OA
BRANCH  22  23
ATOM     23  C   UNL     1     -47.758  48.396  13.535  1.00  0.00     0.285 C 
BRANCH  23  24
ATOM     24  C   UNL     1     -48.161  47.171  12.768  1.00  0.00     0.078 A 
ATOM     25  N   UNL     1     -48.067  47.249  11.425  1.00  0.00    -0.258 NA
ATOM     26  C   UNL     1     -48.596  46.058  13.461  1.00  0.00     0.027 A 
ATOM     27  C   UNL     1     -48.431  46.143  10.739  1.00  0.00     0.111 A 
ATOM     28  C   UNL     1     -48.961  44.939  12.720  1.00  0.00     0.004 A 
ATOM     29  C   UNL     1     -48.880  44.975  11.333  1.00  0.00     0.020 A 
ENDBRANCH  23  24
ENDBRANCH  22  23
ENDBRANCH  18  22
ENDBRANCH  13  15
ENDBRANCH   4  13
BRANCH   7  30
ATOM     30  N   UNL     1     -40.343  45.716  18.014  1.00  0.00    -0.319 N 
ATOM     31  C   UNL     1     -41.659  45.412  18.387  1.00  0.00     0.248 C 
ATOM     32  O   UNL     1     -42.637  46.145  18.306  1.00  0.00    -0.270 OA
ATOM     33  H   UNL     1     -39.638  44.993  18.147  1.00  0.00     0.170 HD
BRANCH  31  34
ATOM     34  C   UNL     1     -41.770  44.025  18.929  1.00  0.00     0.068 C 
ATOM     35  C   UNL     1     -42.064  43.821  20.221  1.00  0.00    -0.006 C 
BRANCH  35  36
ATOM     36  C   UNL     1     -42.200  42.457  20.827  1.00  0.00     0.111 C 
BRANCH  36  37
ATOM     37  N   UNL     1     -43.535  42.246  21.378  1.00  0.00    -0.306 NA
ATOM     38  C   UNL     1     -44.464  41.829  20.328  1.00  0.00     0.105 C 
ATOM     39  C   UNL     1     -44.019  43.462  22.032  1.00  0.00     0.105 C 
ENDBRANCH  36  37
ENDBRANCH  35  36
ENDBRANCH  31  34
ENDBRANCH   7  30
BRANCH   8  40
ATOM     40  O   UNL     1     -38.320  47.187  19.289  1.00  0.00    -0.492 OA
BRANCH  40  41
ATOM     41  C   UNL     1     -38.507  48.016  20.433  1.00  0.00     0.226 C 
ATOM     42  C   UNL     1     -39.859  47.716  21.044  1.00  0.00     0.049 C 
ENDBRANCH  40  41
ENDBRANCH   8  40
TORSDOF 11
ENDMDL
MODEL 11
REMARK VINA RESULT:    -7.921      4.446      9.344
REMARK INTER + INTRA:         -14.790
REMARK INTER:                 -13.206
REMARK INTRA:                  -1.583
REMARK UNBOUND:                -1.775
REMARK SMILES CCOc1cc2ncc(C#N)c(Nc3ccc(OCc4ccccn4)c(Cl)c3)c2cc1NC(=O)/C=C/CN(C)C
REMARK SMILES IDX 7 1 11 2 29 3 12 4 6 5 30 6 31 7 4 8 5 9 9 10 8 11 10 12
REMARK SMILES IDX 13 13 14 15 26 16 28 17 17 18 16 19 15 20 27 21 18 22 19 23
REMARK SMILES IDX 20 24 25 25 21 26 24 27 22 28 23 29 32 30 33 31 34 32 35 34
REMARK SMILES IDX 36 35 37 36 38 37 39 38 40 39 3 40 2 41 1 42
REMARK H PARENT 13 14 32 33
ROOT
ATOM      1  N   UNL     1     -41.616  50.912  13.040  1.00  0.00    -0.255 NA
ATOM      2  N   UNL     1     -37.885  49.382  15.652  1.00  0.00    -0.192 NA
ATOM      3  C   UNL     1     -42.490  48.951  14.134  1.00  0.00     0.027 A 
ATOM      4  C   UNL     1     -41.254  48.760  14.766  1.00  0.00     0.068 A 
ATOM      5  C   UNL     1     -42.629  50.055  13.267  1.00  0.00     0.076 A 
ATOM      6  C   UNL     1     -43.569  48.076  14.349  1.00  0.00     0.042 A 
ATOM      7  C   UNL     1     -44.786  48.289  13.708  1.00  0.00     0.084 A 
ATOM      8  C   UNL     1     -44.930  49.375  12.853  1.00  0.00     0.144 A 
ATOM      9  C   UNL     1     -43.857  50.244  12.640  1.00  0.00     0.077 A 
ATOM     10  C   UNL     1     -40.208  49.642  14.534  1.00  0.00     0.094 A 
ATOM     11  C   UNL     1     -40.439  50.693  13.670  1.00  0.00     0.133 A 
ATOM     12  C   UNL     1     -38.925  49.498  15.151  1.00  0.00     0.103 C 
ENDROOT
BRANCH   4  13
ATOM     13  N   UNL     1     -41.053  47.668  15.650  1.00  0.00    -0.354 N 
ATOM     14  H   UNL     1     -41.124  46.768  15.184  1.00  0.00     0.167 HD
BRANCH  13  15
ATOM     15  C   UNL     1     -40.771  47.603  17.022  1.00  0.00     0.040 A 
ATOM     16  C   UNL     1     -39.791  46.450  18.913  1.00  0.00     0.085 A 
ATOM     17  C   UNL     1     -40.070  46.513  17.548  1.00  0.00     0.050 A 
ATOM     18  C   UNL     1     -40.210  47.476  19.760  1.00  0.00     0.138 A 
ATOM     19  C   UNL     1     -40.910  48.565  19.241  1.00  0.00     0.050 A 
ATOM     20  C   UNL     1     -41.190  48.628  17.877  1.00  0.00     0.030 A 
ATOM     21  Cl  UNL     1     -38.923  45.091  19.528  1.00  0.00    -0.080 Cl
BRANCH  18  22
ATOM     22  O   UNL     1     -39.950  47.440  21.098  1.00  0.00    -0.486 OA
BRANCH  22  23
ATOM     23  C   UNL     1     -38.805  48.159  21.553  1.00  0.00     0.285 C 
BRANCH  23  24
ATOM     24  C   UNL     1     -37.730  47.180  21.922  1.00  0.00     0.078 A 
ATOM     25  N   UNL     1     -36.486  47.465  21.486  1.00  0.00    -0.258 NA
ATOM     26  C   UNL     1     -38.063  46.068  22.671  1.00  0.00     0.027 A 
ATOM     27  C   UNL     1     -35.521  46.581  21.822  1.00  0.00     0.111 A 
ATOM     28  C   UNL     1     -37.043  45.181  22.997  1.00  0.00     0.004 A 
ATOM     29  C   UNL     1     -35.745  45.435  22.568  1.00  0.00     0.020 A 
ENDBRANCH  23  24
ENDBRANCH  22  23
ENDBRANCH  18  22
ENDBRANCH  13  15
ENDBRANCH   4  13
BRANCH   7  30
ATOM     30  N   UNL     1     -45.847  47.409  13.933  1.00  0.00    -0.319 N 
ATOM     31  C   UNL     1     -46.476  47.110  15.149  1.00  0.00     0.248 C 
ATOM     32  O   UNL     1     -46.208  47.570  16.253  1.00  0.00    -0.270 OA
ATOM     33  H   UNL     1     -46.190  46.937  13.099  1.00  0.00     0.170 HD
BRANCH  31  34
ATOM     34  C   UNL     1     -47.574  46.113  14.969  1.00  0.00     0.068 C 
ATOM     35  C   UNL     1     -48.298  46.094  13.841  1.00  0.00    -0.006 C 
BRANCH  35  36
ATOM     36  C   UNL     1     -49.406  45.115  13.593  1.00  0.00     0.111 C 
BRANCH  36  37
ATOM     37  N   UNL     1     -49.547  44.814  12.173  1.00  0.00    -0.306 NA
ATOM     38  C   UNL     1     -48.336  44.173  11.661  1.00  0.00     0.105 C 
ATOM     39  C   UNL     1     -49.837  46.032  11.414  1.00  0.00     0.105 C 
ENDBRANCH  36  37
ENDBRANCH  35  36
ENDBRANCH  31  34
ENDBRANCH   7  30
BRANCH   8  40
ATOM     40  O   UNL     1     -46.109  49.609  12.210  1.00  0.00    -0.492 OA
BRANCH  40  41
ATOM     41  C   UNL     1     -46.155  50.731  11.332  1.00  0.00     0.226 C 
ATOM     42  C   UNL     1     -47.578  51.244  11.261  1.00  0.00     0.049 C 
ENDBRANCH  40  41
ENDBRANCH   8  40
TORSDOF 11
ENDMDL
MODEL 12
REMARK VINA RESULT:    -7.918      3.229      7.976
REMARK INTER + INTRA:         -14.785
REMARK INTER:                 -12.894
REMARK INTRA:                  -1.891
REMARK UNBOUND:                -1.775
REMARK SMILES CCOc1cc2ncc(C#N)c(Nc3ccc(OCc4ccccn4)c(Cl)c3)c2cc1NC(=O)/C=C/CN(C)C
REMARK SMILES IDX 7 1 11 2 29 3 12 4 6 5 30 6 31 7 4 8 5 9 9 10 8 11 10 12
REMARK SMILES IDX 13 13 14 15 26 16 28 17 17 18 16 19 15 20 27 21 18 22 19 23
REMARK SMILES IDX 20 24 25 25 21 26 24 27 22 28 23 29 32 30 33 31 34 32 35 34
REMARK SMILES IDX 36 35 37 36 38 37 39 38 40 39 3 40 2 41 1 42
REMARK H PARENT 13 14 32 33
ROOT
ATOM      1  N   UNL     1     -40.992  44.993  22.536  1.00  0.00    -0.255 NA
ATOM      2  N   UNL     1     -44.122  42.559  19.822  1.00  0.00    -0.192 NA
ATOM      3  C   UNL     1     -40.406  45.666  20.298  1.00  0.00     0.027 A 
ATOM      4  C   UNL     1     -41.421  44.845  19.791  1.00  0.00     0.068 A 
ATOM      5  C   UNL     1     -40.223  45.711  21.696  1.00  0.00     0.076 A 
ATOM      6  C   UNL     1     -39.584  46.429  19.450  1.00  0.00     0.042 A 
ATOM      7  C   UNL     1     -38.581  47.236  19.980  1.00  0.00     0.084 A 
ATOM      8  C   UNL     1     -38.396  47.284  21.356  1.00  0.00     0.144 A 
ATOM      9  C   UNL     1     -39.213  46.526  22.199  1.00  0.00     0.077 A 
ATOM     10  C   UNL     1     -42.217  44.105  20.654  1.00  0.00     0.094 A 
ATOM     11  C   UNL     1     -41.963  44.214  22.007  1.00  0.00     0.133 A 
ATOM     12  C   UNL     1     -43.268  43.251  20.195  1.00  0.00     0.103 C 
ENDROOT
BRANCH   4  13
ATOM     13  N   UNL     1     -41.654  44.759  18.393  1.00  0.00    -0.354 N 
ATOM     14  H   UNL     1     -41.566  43.811  18.039  1.00  0.00     0.167 HD
BRANCH  13  15
ATOM     15  C   UNL     1     -41.984  45.723  17.430  1.00  0.00     0.040 A 
ATOM     16  C   UNL     1     -43.616  47.180  16.390  1.00  0.00     0.085 A 
ATOM     17  C   UNL     1     -43.288  46.221  17.348  1.00  0.00     0.050 A 
ATOM     18  C   UNL     1     -42.641  47.646  15.507  1.00  0.00     0.138 A 
ATOM     19  C   UNL     1     -41.339  47.152  15.583  1.00  0.00     0.050 A 
ATOM     20  C   UNL     1     -41.011  46.193  16.541  1.00  0.00     0.030 A 
ATOM     21  Cl  UNL     1     -45.234  47.774  16.318  1.00  0.00    -0.080 Cl
BRANCH  18  22
ATOM     22  O   UNL     1     -42.933  48.583  14.560  1.00  0.00    -0.486 OA
BRANCH  22  23
ATOM     23  C   UNL     1     -42.547  49.927  14.841  1.00  0.00     0.285 C 
BRANCH  23  24
ATOM     24  C   UNL     1     -41.470  50.336  13.880  1.00  0.00     0.078 A 
ATOM     25  N   UNL     1     -41.811  50.366  12.576  1.00  0.00    -0.258 NA
ATOM     26  C   UNL     1     -40.218  50.655  14.371  1.00  0.00     0.027 A 
ATOM     27  C   UNL     1     -40.837  50.736  11.715  1.00  0.00     0.111 A 
ATOM     28  C   UNL     1     -39.242  51.031  13.455  1.00  0.00     0.004 A 
ATOM     29  C   UNL     1     -39.551  51.075  12.099  1.00  0.00     0.020 A 
ENDBRANCH  23  24
ENDBRANCH  22  23
ENDBRANCH  18  22
ENDBRANCH  13  15
ENDBRANCH   4  13
BRANCH   7  30
ATOM     30  N   UNL     1     -37.774  47.986  19.122  1.00  0.00    -0.319 N 
ATOM     31  C   UNL     1     -38.174  48.799  18.054  1.00  0.00     0.248 C 
ATOM     32  O   UNL     1     -39.320  49.004  17.669  1.00  0.00    -0.270 OA
ATOM     33  H   UNL     1     -36.776  47.920  19.314  1.00  0.00     0.170 HD
BRANCH  31  34
ATOM     34  C   UNL     1     -37.004  49.435  17.378  1.00  0.00     0.068 C 
ATOM     35  C   UNL     1     -37.187  50.357  16.423  1.00  0.00    -0.006 C 
BRANCH  35  36
ATOM     36  C   UNL     1     -36.058  51.040  15.712  1.00  0.00     0.111 C 
BRANCH  36  37
ATOM     37  N   UNL     1     -35.934  52.435  16.120  1.00  0.00    -0.306 NA
ATOM     38  C   UNL     1     -36.935  53.259  15.441  1.00  0.00     0.105 C 
ATOM     39  C   UNL     1     -34.588  52.936  15.840  1.00  0.00     0.105 C 
ENDBRANCH  36  37
ENDBRANCH  35  36
ENDBRANCH  31  34
ENDBRANCH   7  30
BRANCH   8  40
ATOM     40  O   UNL     1     -37.422  48.064  21.906  1.00  0.00    -0.492 OA
BRANCH  40  41
ATOM     41  C   UNL     1     -36.487  47.420  22.768  1.00  0.00     0.226 C 
ATOM     42  C   UNL     1     -35.385  46.807  21.930  1.00  0.00     0.049 C 
ENDBRANCH  40  41
ENDBRANCH   8  40
TORSDOF 11
ENDMDL
MODEL 13
REMARK VINA RESULT:    -7.885      4.135      9.398
REMARK INTER + INTRA:         -14.730
REMARK INTER:                 -13.118
REMARK INTRA:                  -1.613
REMARK UNBOUND:                -1.775
REMARK SMILES CCOc1cc2ncc(C#N)c(Nc3ccc(OCc4ccccn4)c(Cl)c3)c2cc1NC(=O)/C=C/CN(C)C
REMARK SMILES IDX 7 1 11 2 29 3 12 4 6 5 30 6 31 7 4 8 5 9 9 10 8 11 10 12
REMARK SMILES IDX 13 13 14 15 26 16 28 17 17 18 16 19 15 20 27 21 18 22 19 23
REMARK SMILES IDX 20 24 25 25 21 26 24 27 22 28 23 29 32 30 33 31 34 32 35 34
REMARK SMILES IDX 36 35 37 36 38 37 39 38 40 39 3 40 2 41 1 42
REMARK H PARENT 13 14 32 33
ROOT
ATOM      1  N   UNL     1     -42.782  44.338  19.518  1.00  0.00    -0.255 NA
ATOM      2  N   UNL     1     -47.140  45.907  18.240  1.00  0.00    -0.192 NA
ATOM      3  C   UNL     1     -42.323  46.514  18.592  1.00  0.00     0.027 A 
ATOM      4  C   UNL     1     -43.690  46.687  18.334  1.00  0.00     0.068 A 
ATOM      5  C   UNL     1     -41.907  45.308  19.193  1.00  0.00     0.076 A 
ATOM      6  C   UNL     1     -41.382  47.506  18.265  1.00  0.00     0.042 A 
ATOM      7  C   UNL     1     -40.030  47.309  18.531  1.00  0.00     0.084 A 
ATOM      8  C   UNL     1     -39.614  46.123  19.123  1.00  0.00     0.144 A 
ATOM      9  C   UNL     1     -40.550  45.137  19.448  1.00  0.00     0.077 A 
ATOM     10  C   UNL     1     -44.594  45.689  18.669  1.00  0.00     0.094 A 
ATOM     11  C   UNL     1     -44.093  44.544  19.254  1.00  0.00     0.133 A 
ATOM     12  C   UNL     1     -45.999  45.809  18.432  1.00  0.00     0.103 C 
ENDROOT
BRANCH   4  13
ATOM     13  N   UNL     1     -44.169  47.879  17.732  1.00  0.00    -0.354 N 
ATOM     14  H   UNL     1     -44.433  48.585  18.413  1.00  0.00     0.167 HD
BRANCH  13  15
ATOM     15  C   UNL     1     -44.336  48.260  16.393  1.00  0.00     0.040 A 
ATOM     16  C   UNL     1     -43.443  49.214  14.353  1.00  0.00     0.085 A 
ATOM     17  C   UNL     1     -43.276  48.836  15.685  1.00  0.00     0.050 A 
ATOM     18  C   UNL     1     -44.671  49.018  13.720  1.00  0.00     0.138 A 
ATOM     19  C   UNL     1     -45.732  48.444  14.421  1.00  0.00     0.050 A 
ATOM     20  C   UNL     1     -45.565  48.066  15.753  1.00  0.00     0.030 A 
ATOM     21  Cl  UNL     1     -42.113  49.921  13.511  1.00  0.00    -0.080 Cl
BRANCH  18  22
ATOM     22  O   UNL     1     -44.861  49.377  12.419  1.00  0.00    -0.486 OA
BRANCH  22  23
ATOM     23  C   UNL     1     -46.057  48.919  11.791  1.00  0.00     0.285 C 
BRANCH  23  24
ATOM     24  C   UNL     1     -46.944  50.097  11.512  1.00  0.00     0.078 A 
ATOM     25  N   UNL     1     -48.198  50.032  12.004  1.00  0.00    -0.258 NA
ATOM     26  C   UNL     1     -46.441  51.159  10.785  1.00  0.00     0.027 A 
ATOM     27  C   UNL     1     -48.992  51.096  11.750  1.00  0.00     0.111 A 
ATOM     28  C   UNL     1     -47.287  52.235  10.545  1.00  0.00     0.004 A 
ATOM     29  C   UNL     1     -48.589  52.210  11.034  1.00  0.00     0.020 A 
ENDBRANCH  23  24
ENDBRANCH  22  23
ENDBRANCH  18  22
ENDBRANCH  13  15
ENDBRANCH   4  13
BRANCH   7  30
ATOM     30  N   UNL     1     -39.109  48.306  18.199  1.00  0.00    -0.319 N 
ATOM     31  C   UNL     1     -38.178  48.305  17.153  1.00  0.00     0.248 C 
ATOM     32  O   UNL     1     -37.995  47.419  16.326  1.00  0.00    -0.270 OA
ATOM     33  H   UNL     1     -39.135  49.124  18.804  1.00  0.00     0.170 HD
BRANCH  31  34
ATOM     34  C   UNL     1     -37.372  49.562  17.133  1.00  0.00     0.068 C 
ATOM     35  C   UNL     1     -36.786  49.978  16.002  1.00  0.00    -0.006 C 
BRANCH  35  36
ATOM     36  C   UNL     1     -35.972  51.233  15.911  1.00  0.00     0.111 C 
BRANCH  36  37
ATOM     37  N   UNL     1     -36.612  52.226  15.055  1.00  0.00    -0.306 NA
ATOM     38  C   UNL     1     -37.291  53.239  15.863  1.00  0.00     0.105 C 
ATOM     39  C   UNL     1     -37.559  51.585  14.142  1.00  0.00     0.105 C 
ENDBRANCH  36  37
ENDBRANCH  35  36
ENDBRANCH  31  34
ENDBRANCH   7  30
BRANCH   8  40
ATOM     40  O   UNL     1     -38.297  45.900  19.395  1.00  0.00    -0.492 OA
BRANCH  40  41
ATOM     41  C   UNL     1     -37.936  45.743  20.765  1.00  0.00     0.226 C 
ATOM     42  C   UNL     1     -38.099  47.072  21.472  1.00  0.00     0.049 C 
ENDBRANCH  40  41
ENDBRANCH   8  40
TORSDOF 11
ENDMDL
MODEL 14
REMARK VINA RESULT:    -7.805      4.418      9.233
REMARK INTER + INTRA:         -14.599
REMARK INTER:                 -12.906
REMARK INTRA:                  -1.694
REMARK UNBOUND:                -1.775
REMARK SMILES CCOc1cc2ncc(C#N)c(Nc3ccc(OCc4ccccn4)c(Cl)c3)c2cc1NC(=O)/C=C/CN(C)C
REMARK SMILES IDX 7 1 11 2 29 3 12 4 6 5 30 6 31 7 4 8 5 9 9 10 8 11 10 12
REMARK SMILES IDX 13 13 14 15 26 16 28 17 17 18 16 19 15 20 27 21 18 22 19 23
REMARK SMILES IDX 20 24 25 25 21 26 24 27 22 28 23 29 32 30 33 31 34 32 35 34
REMARK SMILES IDX 36 35 37 36 38 37 39 38 40 39 3 40 2 41 1 42
REMARK H PARENT 13 14 32 33
ROOT
ATOM      1  N   UNL     1     -38.228  50.686  15.849  1.00  0.00    -0.255 NA
ATOM      2  N   UNL     1     -40.359  51.389  11.601  1.00  0.00    -0.192 NA
ATOM      3  C   UNL     1     -39.706  48.792  15.665  1.00  0.00     0.027 A 
ATOM      4  C   UNL     1     -40.143  49.261  14.419  1.00  0.00     0.068 A 
ATOM      5  C   UNL     1     -38.734  49.546  16.356  1.00  0.00     0.076 A 
ATOM      6  C   UNL     1     -40.213  47.606  16.224  1.00  0.00     0.042 A 
ATOM      7  C   UNL     1     -39.763  47.162  17.464  1.00  0.00     0.084 A 
ATOM      8  C   UNL     1     -38.805  47.900  18.149  1.00  0.00     0.144 A 
ATOM      9  C   UNL     1     -38.301  49.079  17.593  1.00  0.00     0.077 A 
ATOM     10  C   UNL     1     -39.623  50.436  13.894  1.00  0.00     0.094 A 
ATOM     11  C   UNL     1     -38.675  51.104  14.643  1.00  0.00     0.133 A 
ATOM     12  C   UNL     1     -40.029  50.962  12.628  1.00  0.00     0.103 C 
ENDROOT
BRANCH   4  13
ATOM     13  N   UNL     1     -41.119  48.546  13.677  1.00  0.00    -0.354 N 
ATOM     14  H   UNL     1     -40.709  47.880  13.029  1.00  0.00     0.167 HD
BRANCH  13  15
ATOM     15  C   UNL     1     -42.521  48.584  13.678  1.00  0.00     0.040 A 
ATOM     16  C   UNL     1     -44.645  47.711  14.450  1.00  0.00     0.085 A 
ATOM     17  C   UNL     1     -43.251  47.673  14.449  1.00  0.00     0.050 A 
ATOM     18  C   UNL     1     -45.318  48.660  13.679  1.00  0.00     0.138 A 
ATOM     19  C   UNL     1     -44.595  49.570  12.907  1.00  0.00     0.050 A 
ATOM     20  C   UNL     1     -43.201  49.532  12.907  1.00  0.00     0.030 A 
ATOM     21  Cl  UNL     1     -45.513  46.574  15.413  1.00  0.00    -0.080 Cl
BRANCH  18  22
ATOM     22  O   UNL     1     -46.680  48.720  13.661  1.00  0.00    -0.486 OA
BRANCH  22  23
ATOM     23  C   UNL     1     -47.312  48.661  12.384  1.00  0.00     0.285 C 
BRANCH  23  24
ATOM     24  C   UNL     1     -48.072  49.934  12.156  1.00  0.00     0.078 A 
ATOM     25  N   UNL     1     -49.228  50.072  12.835  1.00  0.00    -0.258 NA
ATOM     26  C   UNL     1     -47.557  50.875  11.284  1.00  0.00     0.027 A 
ATOM     27  C   UNL     1     -49.908  51.221  12.625  1.00  0.00     0.111 A 
ATOM     28  C   UNL     1     -48.284  52.045  11.095  1.00  0.00     0.004 A 
ATOM     29  C   UNL     1     -49.483  52.228  11.775  1.00  0.00     0.020 A 
ENDBRANCH  23  24
ENDBRANCH  22  23
ENDBRANCH  18  22
ENDBRANCH  13  15
ENDBRANCH   4  13
BRANCH   7  30
ATOM     30  N   UNL     1     -40.279  45.982  18.003  1.00  0.00    -0.319 N 
ATOM     31  C   UNL     1     -41.618  45.669  18.272  1.00  0.00     0.248 C 
ATOM     32  O   UNL     1     -42.595  46.383  18.082  1.00  0.00    -0.270 OA
ATOM     33  H   UNL     1     -39.579  45.275  18.221  1.00  0.00     0.170 HD
BRANCH  31  34
ATOM     34  C   UNL     1     -41.757  44.300  18.850  1.00  0.00     0.068 C 
ATOM     35  C   UNL     1     -41.784  44.121  20.178  1.00  0.00    -0.006 C 
BRANCH  35  36
ATOM     36  C   UNL     1     -41.932  42.777  20.824  1.00  0.00     0.111 C 
BRANCH  36  37
ATOM     37  N   UNL     1     -43.135  42.705  21.645  1.00  0.00    -0.306 NA
ATOM     38  C   UNL     1     -43.441  44.014  22.223  1.00  0.00     0.105 C 
ATOM     39  C   UNL     1     -42.979  41.705  22.702  1.00  0.00     0.105 C 
ENDBRANCH  36  37
ENDBRANCH  35  36
ENDBRANCH  31  34
ENDBRANCH   7  30
BRANCH   8  40
ATOM     40  O   UNL     1     -38.344  47.493  19.366  1.00  0.00    -0.492 OA
BRANCH  40  41
ATOM     41  C   UNL     1     -38.859  48.167  20.511  1.00  0.00     0.226 C 
ATOM     42  C   UNL     1     -39.382  47.140  21.494  1.00  0.00     0.049 C 
ENDBRANCH  40  41
ENDBRANCH   8  40
TORSDOF 11
ENDMDL
MODEL 15
REMARK VINA RESULT:    -7.712      3.335      8.196
REMARK INTER + INTRA:         -14.446
REMARK INTER:                 -12.504
REMARK INTRA:                  -1.942
REMARK UNBOUND:                -1.775
REMARK SMILES CCOc1cc2ncc(C#N)c(Nc3ccc(OCc4ccccn4)c(Cl)c3)c2cc1NC(=O)/C=C/CN(C)C
REMARK SMILES IDX 7 1 11 2 29 3 12 4 6 5 30 6 31 7 4 8 5 9 9 10 8 11 10 12
REMARK SMILES IDX 13 13 14 15 26 16 28 17 17 18 16 19 15 20 27 21 18 22 19 23
REMARK SMILES IDX 20 24 25 25 21 26 24 27 22 28 23 29 32 30 33 31 34 32 35 34
REMARK SMILES IDX 36 35 37 36 38 37 39 38 40 39 3 40 2 41 1 42
REMARK H PARENT 13 14 32 33
ROOT
ATOM      1  N   UNL     1     -45.510  49.247  12.876  1.00  0.00    -0.255 NA
ATOM      2  N   UNL     1     -48.051  45.657  14.811  1.00  0.00    -0.192 NA
ATOM      3  C   UNL     1     -43.930  48.210  14.371  1.00  0.00     0.027 A 
ATOM      4  C   UNL     1     -44.906  47.278  14.747  1.00  0.00     0.068 A 
ATOM      5  C   UNL     1     -44.279  49.191  13.419  1.00  0.00     0.076 A 
ATOM      6  C   UNL     1     -42.636  48.181  14.919  1.00  0.00     0.042 A 
ATOM      7  C   UNL     1     -41.685  49.120  14.528  1.00  0.00     0.084 A 
ATOM      8  C   UNL     1     -42.022  50.089  13.591  1.00  0.00     0.144 A 
ATOM      9  C   UNL     1     -43.309  50.117  13.047  1.00  0.00     0.077 A 
ATOM     10  C   UNL     1     -46.175  47.333  14.188  1.00  0.00     0.094 A 
ATOM     11  C   UNL     1     -46.423  48.328  13.264  1.00  0.00     0.133 A 
ATOM     12  C   UNL     1     -47.211  46.408  14.532  1.00  0.00     0.103 C 
ENDROOT
BRANCH   4  13
ATOM     13  N   UNL     1     -44.615  46.268  15.700  1.00  0.00    -0.354 N 
ATOM     14  H   UNL     1     -44.884  45.341  15.384  1.00  0.00     0.167 HD
BRANCH  13  15
ATOM     15  C   UNL     1     -44.026  46.311  16.973  1.00  0.00     0.040 A 
ATOM     16  C   UNL     1     -42.181  45.789  18.453  1.00  0.00     0.085 A 
ATOM     17  C   UNL     1     -42.765  45.746  17.187  1.00  0.00     0.050 A 
ATOM     18  C   UNL     1     -42.855  46.398  19.512  1.00  0.00     0.138 A 
ATOM     19  C   UNL     1     -44.114  46.963  19.305  1.00  0.00     0.050 A 
ATOM     20  C   UNL     1     -44.698  46.919  18.039  1.00  0.00     0.030 A 
ATOM     21  Cl  UNL     1     -40.624  45.083  18.681  1.00  0.00    -0.080 Cl
BRANCH  18  22
ATOM     22  O   UNL     1     -42.308  46.455  20.759  1.00  0.00    -0.486 OA
BRANCH  22  23
ATOM     23  C   UNL     1     -41.576  47.634  21.090  1.00  0.00     0.285 C 
BRANCH  23  24
ATOM     24  C   UNL     1     -40.113  47.304  21.133  1.00  0.00     0.078 A 
ATOM     25  N   UNL     1     -39.737  46.366  22.026  1.00  0.00    -0.258 NA
ATOM     26  C   UNL     1     -39.251  47.962  20.276  1.00  0.00     0.027 A 
ATOM     27  C   UNL     1     -38.418  46.073  22.060  1.00  0.00     0.111 A 
ATOM     28  C   UNL     1     -37.902  47.633  20.340  1.00  0.00     0.004 A 
ATOM     29  C   UNL     1     -37.470  46.671  21.246  1.00  0.00     0.020 A 
ENDBRANCH  23  24
ENDBRANCH  22  23
ENDBRANCH  18  22
ENDBRANCH  13  15
ENDBRANCH   4  13
BRANCH   7  30
ATOM     30  N   UNL     1     -40.404  49.077  15.084  1.00  0.00    -0.319 N 
ATOM     31  C   UNL     1     -40.052  49.069  16.440  1.00  0.00     0.248 C 
ATOM     32  O   UNL     1     -40.812  49.101  17.401  1.00  0.00    -0.270 OA
ATOM     33  H   UNL     1     -39.648  49.047  14.402  1.00  0.00     0.170 HD
BRANCH  31  34
ATOM     34  C   UNL     1     -38.571  49.017  16.623  1.00  0.00     0.068 C 
ATOM     35  C   UNL     1     -37.779  49.920  16.027  1.00  0.00    -0.006 C 
BRANCH  35  36
ATOM     36  C   UNL     1     -36.288  49.930  16.176  1.00  0.00     0.111 C 
BRANCH  36  37
ATOM     37  N   UNL     1     -35.656  50.792  15.183  1.00  0.00    -0.306 NA
ATOM     38  C   UNL     1     -35.387  52.115  15.748  1.00  0.00     0.105 C 
ATOM     39  C   UNL     1     -36.498  50.909  13.992  1.00  0.00     0.105 C 
ENDBRANCH  36  37
ENDBRANCH  35  36
ENDBRANCH  31  34
ENDBRANCH   7  30
BRANCH   8  40
ATOM     40  O   UNL     1     -41.114  51.022  13.189  1.00  0.00    -0.492 OA
BRANCH  40  41
ATOM     41  C   UNL     1     -40.789  51.053  11.801  1.00  0.00     0.226 C 
ATOM     42  C   UNL     1     -39.310  51.339  11.647  1.00  0.00     0.049 C 
ENDBRANCH  40  41
ENDBRANCH   8  40
TORSDOF 11
ENDMDL
MODEL 16
REMARK VINA RESULT:    -7.704      4.378      8.189
REMARK INTER + INTRA:         -14.433
REMARK INTER:                 -12.749
REMARK INTRA:                  -1.684
REMARK UNBOUND:                -1.775
REMARK SMILES CCOc1cc2ncc(C#N)c(Nc3ccc(OCc4ccccn4)c(Cl)c3)c2cc1NC(=O)/C=C/CN(C)C
REMARK SMILES IDX 7 1 11 2 29 3 12 4 6 5 30 6 31 7 4 8 5 9 9 10 8 11 10 12
REMARK SMILES IDX 13 13 14 15 26 16 28 17 17 18 16 19 15 20 27 21 18 22 19 23
REMARK SMILES IDX 20 24 25 25 21 26 24 27 22 28 23 29 32 30 33 31 34 32 35 34
REMARK SMILES IDX 36 35 37 36 38 37 39 38 40 39 3 40 2 41 1 42
REMARK H PARENT 13 14 32 33
ROOT
ATOM      1  N   UNL     1     -41.660  50.219  12.484  1.00  0.00    -0.255 NA
ATOM      2  N   UNL     1     -37.787  50.930  15.238  1.00  0.00    -0.192 NA
ATOM      3  C   UNL     1     -42.396  49.475  14.655  1.00  0.00     0.027 A 
ATOM      4  C   UNL     1     -41.136  49.788  15.183  1.00  0.00     0.068 A 
ATOM      5  C   UNL     1     -42.618  49.709  13.281  1.00  0.00     0.076 A 
ATOM      6  C   UNL     1     -43.418  48.942  15.458  1.00  0.00     0.042 A 
ATOM      7  C   UNL     1     -44.661  48.639  14.908  1.00  0.00     0.084 A 
ATOM      8  C   UNL     1     -44.886  48.868  13.556  1.00  0.00     0.144 A 
ATOM      9  C   UNL     1     -43.869  49.398  12.758  1.00  0.00     0.077 A 
ATOM     10  C   UNL     1     -40.147  50.314  14.363  1.00  0.00     0.094 A 
ATOM     11  C   UNL     1     -40.458  50.509  13.032  1.00  0.00     0.133 A 
ATOM     12  C   UNL     1     -38.844  50.653  14.845  1.00  0.00     0.103 C 
ENDROOT
BRANCH   4  13
ATOM     13  N   UNL     1     -40.853  49.575  16.557  1.00  0.00    -0.354 N 
ATOM     14  H   UNL     1     -41.079  50.380  17.134  1.00  0.00     0.167 HD
BRANCH  13  15
ATOM     15  C   UNL     1     -40.334  48.475  17.255  1.00  0.00     0.040 A 
ATOM     16  C   UNL     1     -40.601  46.243  18.156  1.00  0.00     0.085 A 
ATOM     17  C   UNL     1     -41.119  47.336  17.462  1.00  0.00     0.050 A 
ATOM     18  C   UNL     1     -39.295  46.282  18.647  1.00  0.00     0.138 A 
ATOM     19  C   UNL     1     -38.508  47.415  18.444  1.00  0.00     0.050 A 
ATOM     20  C   UNL     1     -39.026  48.508  17.750  1.00  0.00     0.030 A 
ATOM     21  Cl  UNL     1     -41.597  44.854  18.393  1.00  0.00    -0.080 Cl
BRANCH  18  22
ATOM     22  O   UNL     1     -38.764  45.227  19.329  1.00  0.00    -0.486 OA
BRANCH  22  23
ATOM     23  C   UNL     1     -39.004  45.179  20.734  1.00  0.00     0.285 C 
BRANCH  23  24
ATOM     24  C   UNL     1     -37.800  45.712  21.453  1.00  0.00     0.078 A 
ATOM     25  N   UNL     1     -36.679  44.966  21.378  1.00  0.00    -0.258 NA
ATOM     26  C   UNL     1     -37.900  46.909  22.135  1.00  0.00     0.027 A 
ATOM     27  C   UNL     1     -35.598  45.451  22.028  1.00  0.00     0.111 A 
ATOM     28  C   UNL     1     -36.767  47.377  22.790  1.00  0.00     0.004 A 
ATOM     29  C   UNL     1     -35.589  46.638  22.740  1.00  0.00     0.020 A 
ENDBRANCH  23  24
ENDBRANCH  22  23
ENDBRANCH  18  22
ENDBRANCH  13  15
ENDBRANCH   4  13
BRANCH   7  30
ATOM     30  N   UNL     1     -45.665  48.110  15.722  1.00  0.00    -0.319 N 
ATOM     31  C   UNL     1     -45.953  46.761  15.969  1.00  0.00     0.248 C 
ATOM     32  O   UNL     1     -45.371  45.785  15.510  1.00  0.00    -0.270 OA
ATOM     33  H   UNL     1     -46.247  48.806  16.183  1.00  0.00     0.170 HD
BRANCH  31  34
ATOM     34  C   UNL     1     -47.109  46.607  16.901  1.00  0.00     0.068 C 
ATOM     35  C   UNL     1     -46.934  46.088  18.124  1.00  0.00    -0.006 C 
BRANCH  35  36
ATOM     36  C   UNL     1     -48.049  45.915  19.111  1.00  0.00     0.111 C 
BRANCH  36  37
ATOM     37  N   UNL     1     -47.832  46.717  20.311  1.00  0.00    -0.306 NA
ATOM     38  C   UNL     1     -46.522  46.426  20.894  1.00  0.00     0.105 C 
ATOM     39  C   UNL     1     -48.891  46.473  21.291  1.00  0.00     0.105 C 
ENDBRANCH  36  37
ENDBRANCH  35  36
ENDBRANCH  31  34
ENDBRANCH   7  30
BRANCH   8  40
ATOM     40  O   UNL     1     -46.092  48.581  12.988  1.00  0.00    -0.492 OA
BRANCH  40  41
ATOM     41  C   UNL     1     -46.379  49.197  11.735  1.00  0.00     0.226 C 
ATOM     42  C   UNL     1     -47.772  49.788  11.785  1.00  0.00     0.049 C 
ENDBRANCH  40  41
ENDBRANCH   8  40
TORSDOF 11
ENDMDL
MODEL 17
REMARK VINA RESULT:    -7.564      4.401      9.384
REMARK INTER + INTRA:         -14.202
REMARK INTER:                 -12.355
REMARK INTRA:                  -1.847
REMARK UNBOUND:                -1.775
REMARK SMILES CCOc1cc2ncc(C#N)c(Nc3ccc(OCc4ccccn4)c(Cl)c3)c2cc1NC(=O)/C=C/CN(C)C
REMARK SMILES IDX 7 1 11 2 29 3 12 4 6 5 30 6 31 7 4 8 5 9 9 10 8 11 10 12
REMARK SMILES IDX 13 13 14 15 26 16 28 17 17 18 16 19 15 20 27 21 18 22 19 23
REMARK SMILES IDX 20 24 25 25 21 26 24 27 22 28 23 29 32 30 33 31 34 32 35 34
REMARK SMILES IDX 36 35 37 36 38 37 39 38 40 39 3 40 2 41 1 42
REMARK H PARENT 13 14 32 33
ROOT
ATOM      1  N   UNL     1     -38.361  50.481  15.868  1.00  0.00    -0.255 NA
ATOM      2  N   UNL     1     -40.593  51.378  11.709  1.00  0.00    -0.192 NA
ATOM      3  C   UNL     1     -39.895  48.635  15.668  1.00  0.00     0.027 A 
ATOM      4  C   UNL     1     -40.355  49.155  14.452  1.00  0.00     0.068 A 
ATOM      5  C   UNL     1     -38.883  49.339  16.353  1.00  0.00     0.076 A 
ATOM      6  C   UNL     1     -40.418  47.444  16.204  1.00  0.00     0.042 A 
ATOM      7  C   UNL     1     -39.944  46.949  17.416  1.00  0.00     0.084 A 
ATOM      8  C   UNL     1     -38.947  47.639  18.095  1.00  0.00     0.144 A 
ATOM      9  C   UNL     1     -38.427  48.822  17.562  1.00  0.00     0.077 A 
ATOM     10  C   UNL     1     -39.817  50.332  13.949  1.00  0.00     0.094 A 
ATOM     11  C   UNL     1     -38.831  50.950  14.690  1.00  0.00     0.133 A 
ATOM     12  C   UNL     1     -40.246  50.910  12.713  1.00  0.00     0.103 C 
ENDROOT
BRANCH   4  13
ATOM     13  N   UNL     1     -41.371  48.491  13.716  1.00  0.00    -0.354 N 
ATOM     14  H   UNL     1     -40.997  47.844  13.027  1.00  0.00     0.167 HD
BRANCH  13  15
ATOM     15  C   UNL     1     -42.770  48.555  13.769  1.00  0.00     0.040 A 
ATOM     16  C   UNL     1     -44.870  49.382  12.889  1.00  0.00     0.085 A 
ATOM     17  C   UNL     1     -43.478  49.318  12.835  1.00  0.00     0.050 A 
ATOM     18  C   UNL     1     -45.563  48.683  13.878  1.00  0.00     0.138 A 
ATOM     19  C   UNL     1     -44.863  47.920  14.813  1.00  0.00     0.050 A 
ATOM     20  C   UNL     1     -43.471  47.857  14.759  1.00  0.00     0.030 A 
ATOM     21  Cl  UNL     1     -45.711  50.332  11.720  1.00  0.00    -0.080 Cl
BRANCH  18  22
ATOM     22  O   UNL     1     -46.924  48.726  13.954  1.00  0.00    -0.486 OA
BRANCH  22  23
ATOM     23  C   UNL     1     -47.600  47.487  14.154  1.00  0.00     0.285 C 
BRANCH  23  24
ATOM     24  C   UNL     1     -48.178  47.463  15.537  1.00  0.00     0.078 A 
ATOM     25  N   UNL     1     -48.045  46.310  16.223  1.00  0.00    -0.258 NA
ATOM     26  C   UNL     1     -48.800  48.597  16.024  1.00  0.00     0.027 A 
ATOM     27  C   UNL     1     -48.567  46.295  17.469  1.00  0.00     0.111 A 
ATOM     28  C   UNL     1     -49.325  48.544  17.311  1.00  0.00     0.004 A 
ATOM     29  C   UNL     1     -49.210  47.374  18.053  1.00  0.00     0.020 A 
ENDBRANCH  23  24
ENDBRANCH  22  23
ENDBRANCH  18  22
ENDBRANCH  13  15
ENDBRANCH   4  13
BRANCH   7  30
ATOM     30  N   UNL     1     -40.476  45.766  17.932  1.00  0.00    -0.319 N 
ATOM     31  C   UNL     1     -41.740  45.566  18.503  1.00  0.00     0.248 C 
ATOM     32  O   UNL     1     -42.622  46.402  18.657  1.00  0.00    -0.270 OA
ATOM     33  H   UNL     1     -39.853  44.963  17.878  1.00  0.00     0.170 HD
BRANCH  31  34
ATOM     34  C   UNL     1     -41.929  44.150  18.938  1.00  0.00     0.068 C 
ATOM     35  C   UNL     1     -43.087  43.754  19.484  1.00  0.00    -0.006 C 
BRANCH  35  36
ATOM     36  C   UNL     1     -43.345  42.348  19.933  1.00  0.00     0.111 C 
BRANCH  36  37
ATOM     37  N   UNL     1     -43.245  42.221  21.383  1.00  0.00    -0.306 NA
ATOM     38  C   UNL     1     -42.025  41.505  21.753  1.00  0.00     0.105 C 
ATOM     39  C   UNL     1     -44.421  41.535  21.922  1.00  0.00     0.105 C 
ENDBRANCH  36  37
ENDBRANCH  35  36
ENDBRANCH  31  34
ENDBRANCH   7  30
BRANCH   8  40
ATOM     40  O   UNL     1     -38.462  47.180  19.284  1.00  0.00    -0.492 OA
BRANCH  40  41
ATOM     41  C   UNL     1     -38.597  48.041  20.412  1.00  0.00     0.226 C 
ATOM     42  C   UNL     1     -39.992  47.893  20.982  1.00  0.00     0.049 C 
ENDBRANCH  40  41
ENDBRANCH   8  40
TORSDOF 11
ENDMDL
MODEL 18
REMARK VINA RESULT:    -7.529      2.973      8.590
REMARK INTER + INTRA:         -14.145
REMARK INTER:                 -12.800
REMARK INTRA:                  -1.345
REMARK UNBOUND:                -1.775
REMARK SMILES CCOc1cc2ncc(C#N)c(Nc3ccc(OCc4ccccn4)c(Cl)c3)c2cc1NC(=O)/C=C/CN(C)C
REMARK SMILES IDX 7 1 11 2 29 3 12 4 6 5 30 6 31 7 4 8 5 9 9 10 8 11 10 12
REMARK SMILES IDX 13 13 14 15 26 16 28 17 17 18 16 19 15 20 27 21 18 22 19 23
REMARK SMILES IDX 20 24 25 25 21 26 24 27 22 28 23 29 32 30 33 31 34 32 35 34
REMARK SMILES IDX 36 35 37 36 38 37 39 38 40 39 3 40 2 41 1 42
REMARK H PARENT 13 14 32 33
ROOT
ATOM      1  N   UNL     1     -39.715  51.190  13.491  1.00  0.00    -0.255 NA
ATOM      2  N   UNL     1     -44.088  49.509  12.425  1.00  0.00    -0.192 NA
ATOM      3  C   UNL     1     -40.081  49.519  15.188  1.00  0.00     0.027 A 
ATOM      4  C   UNL     1     -41.340  49.244  14.638  1.00  0.00     0.068 A 
ATOM      5  C   UNL     1     -39.290  50.513  14.574  1.00  0.00     0.076 A 
ATOM      6  C   UNL     1     -39.606  48.831  16.318  1.00  0.00     0.042 A 
ATOM      7  C   UNL     1     -38.350  49.124  16.845  1.00  0.00     0.084 A 
ATOM      8  C   UNL     1     -37.567  50.102  16.245  1.00  0.00     0.144 A 
ATOM      9  C   UNL     1     -38.039  50.785  15.121  1.00  0.00     0.077 A 
ATOM     10  C   UNL     1     -41.780  49.940  13.521  1.00  0.00     0.094 A 
ATOM     11  C   UNL     1     -40.936  50.894  12.990  1.00  0.00     0.133 A 
ATOM     12  C   UNL     1     -43.054  49.703  12.916  1.00  0.00     0.103 C 
ENDROOT
BRANCH   4  13
ATOM     13  N   UNL     1     -42.181  48.255  15.211  1.00  0.00    -0.354 N 
ATOM     14  H   UNL     1     -42.792  47.816  14.529  1.00  0.00     0.167 HD
BRANCH  13  15
ATOM     15  C   UNL     1     -42.316  47.774  16.522  1.00  0.00     0.040 A 
ATOM     16  C   UNL     1     -41.908  46.059  18.183  1.00  0.00     0.085 A 
ATOM     17  C   UNL     1     -41.773  46.536  16.879  1.00  0.00     0.050 A 
ATOM     18  C   UNL     1     -42.589  46.817  19.137  1.00  0.00     0.138 A 
ATOM     19  C   UNL     1     -43.134  48.052  18.786  1.00  0.00     0.050 A 
ATOM     20  C   UNL     1     -42.999  48.529  17.482  1.00  0.00     0.030 A 
ATOM     21  Cl  UNL     1     -41.224  44.529  18.590  1.00  0.00    -0.080 Cl
BRANCH  18  22
ATOM     22  O   UNL     1     -42.736  46.376  20.418  1.00  0.00    -0.486 OA
BRANCH  22  23
ATOM     23  C   UNL     1     -44.039  45.947  20.808  1.00  0.00     0.285 C 
BRANCH  23  24
ATOM     24  C   UNL     1     -44.121  44.455  20.682  1.00  0.00     0.078 A 
ATOM     25  N   UNL     1     -43.422  43.738  21.586  1.00  0.00    -0.258 NA
ATOM     26  C   UNL     1     -44.889  43.908  19.672  1.00  0.00     0.027 A 
ATOM     27  C   UNL     1     -43.500  42.394  21.467  1.00  0.00     0.111 A 
ATOM     28  C   UNL     1     -44.945  42.522  19.582  1.00  0.00     0.004 A 
ATOM     29  C   UNL     1     -44.239  41.743  20.493  1.00  0.00     0.020 A 
ENDBRANCH  23  24
ENDBRANCH  22  23
ENDBRANCH  18  22
ENDBRANCH  13  15
ENDBRANCH   4  13
BRANCH   7  30
ATOM     30  N   UNL     1     -37.895  48.431  17.969  1.00  0.00    -0.319 N 
ATOM     31  C   UNL     1     -38.576  48.195  19.170  1.00  0.00     0.248 C 
ATOM     32  O   UNL     1     -39.709  48.560  19.461  1.00  0.00    -0.270 OA
ATOM     33  H   UNL     1     -36.951  48.059  17.883  1.00  0.00     0.170 HD
BRANCH  31  34
ATOM     34  C   UNL     1     -37.742  47.412  20.130  1.00  0.00     0.068 C 
ATOM     35  C   UNL     1     -37.848  47.618  21.450  1.00  0.00    -0.006 C 
BRANCH  35  36
ATOM     36  C   UNL     1     -37.049  46.860  22.467  1.00  0.00     0.111 C 
BRANCH  36  37
ATOM     37  N   UNL     1     -36.137  45.914  21.834  1.00  0.00    -0.306 NA
ATOM     38  C   UNL     1     -36.142  44.638  22.551  1.00  0.00     0.105 C 
ATOM     39  C   UNL     1     -34.781  46.462  21.782  1.00  0.00     0.105 C 
ENDBRANCH  36  37
ENDBRANCH  35  36
ENDBRANCH  31  34
ENDBRANCH   7  30
BRANCH   8  40
ATOM     40  O   UNL     1     -36.334  50.412  16.737  1.00  0.00    -0.492 OA
BRANCH  40  41
ATOM     41  C   UNL     1     -35.915  51.770  16.625  1.00  0.00     0.226 C 
ATOM     42  C   UNL     1     -34.599  51.820  15.879  1.00  0.00     0.049 C 
ENDBRANCH  40  41
ENDBRANCH   8  40
TORSDOF 11
ENDMDL
MODEL 19
REMARK VINA RESULT:    -7.499      3.566      8.536
REMARK INTER + INTRA:         -14.095
REMARK INTER:                 -12.304
REMARK INTRA:                  -1.791
REMARK UNBOUND:                -1.775
REMARK SMILES CCOc1cc2ncc(C#N)c(Nc3ccc(OCc4ccccn4)c(Cl)c3)c2cc1NC(=O)/C=C/CN(C)C
REMARK SMILES IDX 7 1 11 2 29 3 12 4 6 5 30 6 31 7 4 8 5 9 9 10 8 11 10 12
REMARK SMILES IDX 13 13 14 15 26 16 28 17 17 18 16 19 15 20 27 21 18 22 19 23
REMARK SMILES IDX 20 24 25 25 21 26 24 27 22 28 23 29 32 30 33 31 34 32 35 34
REMARK SMILES IDX 36 35 37 36 38 37 39 38 40 39 3 40 2 41 1 42
REMARK H PARENT 13 14 32 33
ROOT
ATOM      1  N   UNL     1     -39.301  51.347  13.727  1.00  0.00    -0.255 NA
ATOM      2  N   UNL     1     -34.884  51.018  15.590  1.00  0.00    -0.192 NA
ATOM      3  C   UNL     1     -39.507  49.525  15.290  1.00  0.00     0.027 A 
ATOM      4  C   UNL     1     -38.157  49.674  15.634  1.00  0.00     0.068 A 
ATOM      5  C   UNL     1     -40.046  50.395  14.319  1.00  0.00     0.076 A 
ATOM      6  C   UNL     1     -40.314  48.542  15.888  1.00  0.00     0.042 A 
ATOM      7  C   UNL     1     -41.653  48.414  15.528  1.00  0.00     0.084 A 
ATOM      8  C   UNL     1     -42.190  49.268  14.572  1.00  0.00     0.144 A 
ATOM      9  C   UNL     1     -41.387  50.246  13.978  1.00  0.00     0.077 A 
ATOM     10  C   UNL     1     -37.387  50.656  15.027  1.00  0.00     0.094 A 
ATOM     11  C   UNL     1     -38.002  51.459  14.088  1.00  0.00     0.133 A 
ATOM     12  C   UNL     1     -36.005  50.855  15.337  1.00  0.00     0.103 C 
ENDROOT
BRANCH   4  13
ATOM     13  N   UNL     1     -37.559  48.829  16.605  1.00  0.00    -0.354 N 
ATOM     14  H   UNL     1     -36.570  48.675  16.435  1.00  0.00     0.167 HD
BRANCH  13  15
ATOM     15  C   UNL     1     -38.071  48.186  17.741  1.00  0.00     0.040 A 
ATOM     16  C   UNL     1     -38.883  48.278  20.021  1.00  0.00     0.085 A 
ATOM     17  C   UNL     1     -38.374  48.920  18.892  1.00  0.00     0.050 A 
ATOM     18  C   UNL     1     -39.092  46.899  20.006  1.00  0.00     0.138 A 
ATOM     19  C   UNL     1     -38.791  46.161  18.861  1.00  0.00     0.050 A 
ATOM     20  C   UNL     1     -38.282  46.803  17.732  1.00  0.00     0.030 A 
ATOM     21  Cl  UNL     1     -39.247  49.215  21.423  1.00  0.00    -0.080 Cl
BRANCH  18  22
ATOM     22  O   UNL     1     -39.589  46.246  21.095  1.00  0.00    -0.486 OA
BRANCH  22  23
ATOM     23  C   UNL     1     -41.009  46.188  21.220  1.00  0.00     0.285 C 
BRANCH  23  24
ATOM     24  C   UNL     1     -41.444  44.753  21.170  1.00  0.00     0.078 A 
ATOM     25  N   UNL     1     -41.492  44.100  22.348  1.00  0.00    -0.258 NA
ATOM     26  C   UNL     1     -41.767  44.192  19.949  1.00  0.00     0.027 A 
ATOM     27  C   UNL     1     -41.885  42.808  22.297  1.00  0.00     0.111 A 
ATOM     28  C   UNL     1     -42.168  42.861  19.936  1.00  0.00     0.004 A 
ATOM     29  C   UNL     1     -42.231  42.149  21.129  1.00  0.00     0.020 A 
ENDBRANCH  23  24
ENDBRANCH  22  23
ENDBRANCH  18  22
ENDBRANCH  13  15
ENDBRANCH   4  13
BRANCH   7  30
ATOM     30  N   UNL     1     -42.439  47.431  16.132  1.00  0.00    -0.319 N 
ATOM     31  C   UNL     1     -43.179  47.526  17.318  1.00  0.00     0.248 C 
ATOM     32  O   UNL     1     -43.272  48.501  18.055  1.00  0.00    -0.270 OA
ATOM     33  H   UNL     1     -42.465  46.544  15.633  1.00  0.00     0.170 HD
BRANCH  31  34
ATOM     34  C   UNL     1     -43.888  46.249  17.628  1.00  0.00     0.068 C 
ATOM     35  C   UNL     1     -44.620  46.130  18.745  1.00  0.00    -0.006 C 
BRANCH  35  36
ATOM     36  C   UNL     1     -45.363  44.882  19.111  1.00  0.00     0.111 C 
BRANCH  36  37
ATOM     37  N   UNL     1     -46.032  45.015  20.401  1.00  0.00    -0.306 NA
ATOM     38  C   UNL     1     -45.281  44.317  21.444  1.00  0.00     0.105 C 
ATOM     39  C   UNL     1     -47.400  44.498  20.327  1.00  0.00     0.105 C 
ENDBRANCH  36  37
ENDBRANCH  35  36
ENDBRANCH  31  34
ENDBRANCH   7  30
BRANCH   8  40
ATOM     40  O   UNL     1     -43.497  49.168  14.197  1.00  0.00    -0.492 OA
BRANCH  40  41
ATOM     41  C   UNL     1     -43.819  49.557  12.864  1.00  0.00     0.226 C 
ATOM     42  C   UNL     1     -45.309  49.399  12.651  1.00  0.00     0.049 C 
ENDBRANCH  40  41
ENDBRANCH   8  40
TORSDOF 11
ENDMDL
MODEL 20
REMARK VINA RESULT:    -7.492      3.726      9.853
REMARK INTER + INTRA:         -14.084
REMARK INTER:                 -12.442
REMARK INTRA:                  -1.641
REMARK UNBOUND:                -1.775
REMARK SMILES CCOc1cc2ncc(C#N)c(Nc3ccc(OCc4ccccn4)c(Cl)c3)c2cc1NC(=O)/C=C/CN(C)C
REMARK SMILES IDX 7 1 11 2 29 3 12 4 6 5 30 6 31 7 4 8 5 9 9 10 8 11 10 12
REMARK SMILES IDX 13 13 14 15 26 16 28 17 17 18 16 19 15 20 27 21 18 22 19 23
REMARK SMILES IDX 20 24 25 25 21 26 24 27 22 28 23 29 32 30 33 31 34 32 35 34
REMARK SMILES IDX 36 35 37 36 38 37 39 38 40 39 3 40 2 41 1 42
REMARK H PARENT 13 14 32 33
ROOT
ATOM      1  N   UNL     1     -40.745  45.051  22.485  1.00  0.00    -0.255 NA
ATOM      2  N   UNL     1     -44.519  43.020  20.313  1.00  0.00    -0.192 NA
ATOM      3  C   UNL     1     -40.445  45.680  20.178  1.00  0.00     0.027 A 
ATOM      4  C   UNL     1     -41.614  44.986  19.842  1.00  0.00     0.068 A 
ATOM      5  C   UNL     1     -40.040  45.687  21.530  1.00  0.00     0.076 A 
ATOM      6  C   UNL     1     -39.686  46.356  19.207  1.00  0.00     0.042 A 
ATOM      7  C   UNL     1     -38.527  47.037  19.567  1.00  0.00     0.084 A 
ATOM      8  C   UNL     1     -38.123  47.048  20.897  1.00  0.00     0.144 A 
ATOM      9  C   UNL     1     -38.878  46.377  21.862  1.00  0.00     0.077 A 
ATOM     10  C   UNL     1     -42.343  44.330  20.825  1.00  0.00     0.094 A 
ATOM     11  C   UNL     1     -41.869  44.393  22.120  1.00  0.00     0.133 A 
ATOM     12  C   UNL     1     -43.544  43.607  20.542  1.00  0.00     0.103 C 
ENDROOT
BRANCH   4  13
ATOM     13  N   UNL     1     -42.072  44.943  18.500  1.00  0.00    -0.354 N 
ATOM     14  H   UNL     1     -41.825  44.078  18.028  1.00  0.00     0.167 HD
BRANCH  13  15
ATOM     15  C   UNL     1     -42.796  45.857  17.719  1.00  0.00     0.040 A 
ATOM     16  C   UNL     1     -42.882  47.481  15.925  1.00  0.00     0.085 A 
ATOM     17  C   UNL     1     -42.160  46.573  16.700  1.00  0.00     0.050 A 
ATOM     18  C   UNL     1     -44.242  47.678  16.165  1.00  0.00     0.138 A 
ATOM     19  C   UNL     1     -44.881  46.968  17.180  1.00  0.00     0.050 A 
ATOM     20  C   UNL     1     -44.159  46.060  17.956  1.00  0.00     0.030 A 
ATOM     21  Cl  UNL     1     -42.066  48.347  14.674  1.00  0.00    -0.080 Cl
BRANCH  18  22
ATOM     22  O   UNL     1     -44.971  48.559  15.422  1.00  0.00    -0.486 OA
BRANCH  22  23
ATOM     23  C   UNL     1     -46.385  48.374  15.404  1.00  0.00     0.285 C 
BRANCH  23  24
ATOM     24  C   UNL     1     -46.777  47.732  14.106  1.00  0.00     0.078 A 
ATOM     25  N   UNL     1     -46.932  48.558  13.052  1.00  0.00    -0.258 NA
ATOM     26  C   UNL     1     -46.951  46.362  14.061  1.00  0.00     0.027 A 
ATOM     27  C   UNL     1     -47.285  47.974  11.885  1.00  0.00     0.111 A 
ATOM     28  C   UNL     1     -47.313  45.797  12.843  1.00  0.00     0.004 A 
ATOM     29  C   UNL     1     -47.485  46.612  11.730  1.00  0.00     0.020 A 
ENDBRANCH  23  24
ENDBRANCH  22  23
ENDBRANCH  18  22
ENDBRANCH  13  15
ENDBRANCH   4  13
BRANCH   7  30
ATOM     30  N   UNL     1     -37.785  47.702  18.588  1.00  0.00    -0.319 N 
ATOM     31  C   UNL     1     -38.255  48.548  17.576  1.00  0.00     0.248 C 
ATOM     32  O   UNL     1     -39.419  48.864  17.359  1.00  0.00    -0.270 OA
ATOM     33  H   UNL     1     -36.781  47.538  18.634  1.00  0.00     0.170 HD
BRANCH  31  34
ATOM     34  C   UNL     1     -37.140  49.063  16.727  1.00  0.00     0.068 C 
ATOM     35  C   UNL     1     -37.062  50.366  16.422  1.00  0.00    -0.006 C 
BRANCH  35  36
ATOM     36  C   UNL     1     -35.965  50.949  15.583  1.00  0.00     0.111 C 
BRANCH  36  37
ATOM     37  N   UNL     1     -36.237  52.341  15.238  1.00  0.00    -0.306 NA
ATOM     38  C   UNL     1     -35.087  53.184  15.564  1.00  0.00     0.105 C 
ATOM     39  C   UNL     1     -37.432  52.820  15.933  1.00  0.00     0.105 C 
ENDBRANCH  36  37
ENDBRANCH  35  36
ENDBRANCH  31  34
ENDBRANCH   7  30
BRANCH   8  40
ATOM     40  O   UNL     1     -36.993  47.706  21.281  1.00  0.00    -0.492 OA
BRANCH  40  41
ATOM     41  C   UNL     1     -36.258  47.150  22.369  1.00  0.00     0.226 C 
ATOM     42  C   UNL     1     -35.076  46.378  21.822  1.00  0.00     0.049 C 
ENDBRANCH  40  41
ENDBRANCH   8  40
TORSDOF 11
ENDMDL
