MODEL 1
REMARK VINA RESULT:    16.542      0.000      0.000
REMARK INTER + INTRA:          22.863
REMARK INTER:                  23.311
REMARK INTRA:                  -0.448
REMARK UNBOUND:                -0.448
REMARK SMILES Cc1ccc(NC(=O)c2ccc(CN3CCN(C)CC3)cc2)cc1Nc1nc(-c2cccnc2)cs1
REMARK SMILES IDX 6 1 7 2 8 3 5 5 2 6 3 7 24 8 4 9 23 10 1 11 25 12 26 14
REMARK SMILES IDX 27 15 36 16 28 17 35 18 29 19 30 20 34 21 31 22 33 23 32 24
REMARK SMILES IDX 9 25 10 26 22 27 11 28 21 29 12 30 13 31 14 32 15 33 20 34
REMARK SMILES IDX 16 35 19 36 17 37 18 38
REMARK H PARENT 6 4 25 13
ROOT
ATOM      1  N   UNL     1      30.543  27.667  45.851  1.00  0.00    -0.322 N 
ATOM      2  C   UNL     1      30.495  28.924  46.427  1.00  0.00     0.255 C 
ATOM      3  O   UNL     1      29.942  29.234  47.475  1.00  0.00    -0.269 OA
ATOM      4  H   UNL     1      31.165  27.553  45.062  1.00  0.00     0.170 HD
ENDROOT
BRANCH   1   5
ATOM      5  C   UNL     1      29.919  26.490  46.315  1.00  0.00     0.043 A 
ATOM      6  C   UNL     1      28.792  24.128  47.377  1.00  0.00    -0.027 A 
ATOM      7  C   UNL     1      30.027  24.601  47.839  1.00  0.00     0.008 A 
ATOM      8  C   UNL     1      28.131  24.830  46.352  1.00  0.00     0.045 A 
ATOM      9  C   UNL     1      30.582  25.770  47.313  1.00  0.00     0.026 A 
ATOM     10  C   UNL     1      28.701  26.007  45.833  1.00  0.00     0.052 A 
ATOM     11  C   UNL     1      28.222  22.867  47.966  1.00  0.00     0.046 C 
BRANCH   8  12
ATOM     12  N   UNL     1      26.903  24.359  45.827  1.00  0.00    -0.331 N 
ATOM     13  H   UNL     1      26.301  24.016  46.572  1.00  0.00     0.169 HD
BRANCH  12  14
ATOM     14  C   UNL     1      26.175  25.042  44.902  1.00  0.00     0.187 A 
ATOM     15  N   UNL     1      26.169  24.680  43.637  1.00  0.00    -0.220 NA
ATOM     16  S   UNL     1      25.216  26.440  45.235  1.00  0.00    -0.105 S 
ATOM     17  C   UNL     1      25.383  25.526  42.868  1.00  0.00     0.085 A 
ATOM     18  C   UNL     1      24.778  26.540  43.582  1.00  0.00     0.097 A 
BRANCH  17  19
ATOM     19  C   UNL     1      25.248  25.314  41.430  1.00  0.00     0.019 A 
ATOM     20  C   UNL     1      24.837  24.103  40.864  1.00  0.00     0.013 A 
ATOM     21  C   UNL     1      25.524  26.356  40.544  1.00  0.00     0.121 A 
ATOM     22  C   UNL     1      24.722  23.983  39.476  1.00  0.00     0.021 A 
ATOM     23  N   UNL     1      25.422  26.269  39.192  1.00  0.00    -0.264 NA
ATOM     24  C   UNL     1      25.022  25.083  38.691  1.00  0.00     0.111 A 
ENDBRANCH  17  19
ENDBRANCH  12  14
ENDBRANCH   8  12
ENDBRANCH   1   5
BRANCH   2  25
ATOM     25  C   UNL     1      31.253  29.972  45.687  1.00  0.00     0.040 A 
ATOM     26  C   UNL     1      31.943  29.605  44.528  1.00  0.00     0.014 A 
ATOM     27  C   UNL     1      31.299  31.299  46.134  1.00  0.00     0.014 A 
ATOM     28  C   UNL     1      32.647  30.566  43.800  1.00  0.00     0.006 A 
ATOM     29  C   UNL     1      32.008  32.258  45.405  1.00  0.00     0.006 A 
ATOM     30  C   UNL     1      32.679  31.904  44.225  1.00  0.00    -0.034 A 
BRANCH  30  31
ATOM     31  C   UNL     1      33.460  32.942  43.441  1.00  0.00     0.120 C 
BRANCH  31  32
ATOM     32  N   UNL     1      34.871  33.029  43.861  1.00  0.00    -0.297 NA
ATOM     33  C   UNL     1      35.731  33.369  42.713  1.00  0.00     0.100 C 
ATOM     34  C   UNL     1      35.340  31.757  44.464  1.00  0.00     0.100 C 
ATOM     35  C   UNL     1      35.874  32.265  41.630  1.00  0.00     0.099 C 
ATOM     36  C   UNL     1      36.105  30.786  43.523  1.00  0.00     0.099 C 
ATOM     37  N   UNL     1      35.657  30.893  42.129  1.00  0.00    -0.304 NA
ATOM     38  C   UNL     1      36.306  29.907  41.272  1.00  0.00     0.105 C 
ENDBRANCH  31  32
ENDBRANCH  30  31
ENDBRANCH   2  25
TORSDOF 7
ENDMDL
MODEL 2
REMARK VINA RESULT:    16.963      2.032      9.609
REMARK INTER + INTRA:          23.456
REMARK INTER:                  23.422
REMARK INTRA:                   0.034
REMARK UNBOUND:                -0.448
REMARK SMILES Cc1ccc(NC(=O)c2ccc(CN3CCN(C)CC3)cc2)cc1Nc1nc(-c2cccnc2)cs1
REMARK SMILES IDX 6 1 7 2 8 3 5 5 2 6 3 7 24 8 4 9 23 10 1 11 25 12 26 14
REMARK SMILES IDX 27 15 36 16 28 17 35 18 29 19 30 20 34 21 31 22 33 23 32 24
REMARK SMILES IDX 9 25 10 26 22 27 11 28 21 29 12 30 13 31 14 32 15 33 20 34
REMARK SMILES IDX 16 35 19 36 17 37 18 38
REMARK H PARENT 6 4 25 13
ROOT
ATOM      1  N   UNL     1      27.159  25.413  44.530  1.00  0.00    -0.322 N 
ATOM      2  C   UNL     1      25.841  25.829  44.603  1.00  0.00     0.255 C 
ATOM      3  O   UNL     1      25.261  26.265  45.590  1.00  0.00    -0.269 OA
ATOM      4  H   UNL     1      27.522  25.220  43.607  1.00  0.00     0.170 HD
ENDROOT
BRANCH   1   5
ATOM      5  C   UNL     1      28.095  25.347  45.584  1.00  0.00     0.043 A 
ATOM      6  C   UNL     1      29.966  25.035  47.676  1.00  0.00    -0.027 A 
ATOM      7  C   UNL     1      29.283  23.927  47.157  1.00  0.00     0.008 A 
ATOM      8  C   UNL     1      29.684  26.314  47.163  1.00  0.00     0.045 A 
ATOM      9  C   UNL     1      28.360  24.083  46.121  1.00  0.00     0.026 A 
ATOM     10  C   UNL     1      28.752  26.456  46.118  1.00  0.00     0.052 A 
ATOM     11  C   UNL     1      30.955  24.831  48.791  1.00  0.00     0.046 C 
BRANCH   8  12
ATOM     12  N   UNL     1      30.319  27.463  47.693  1.00  0.00    -0.331 N 
ATOM     13  H   UNL     1      31.155  27.206  48.211  1.00  0.00     0.169 HD
BRANCH  12  14
ATOM     14  C   UNL     1      30.535  28.596  46.971  1.00  0.00     0.187 A 
ATOM     15  N   UNL     1      31.602  28.726  46.210  1.00  0.00    -0.220 NA
ATOM     16  S   UNL     1      29.500  29.980  46.967  1.00  0.00    -0.105 S 
ATOM     17  C   UNL     1      31.636  29.965  45.586  1.00  0.00     0.085 A 
ATOM     18  C   UNL     1      30.558  30.775  45.880  1.00  0.00     0.097 A 
BRANCH  17  19
ATOM     19  C   UNL     1      32.744  30.325  44.706  1.00  0.00     0.019 A 
ATOM     20  C   UNL     1      33.409  31.554  44.766  1.00  0.00     0.013 A 
ATOM     21  C   UNL     1      33.196  29.416  43.750  1.00  0.00     0.121 A 
ATOM     22  C   UNL     1      34.468  31.819  43.895  1.00  0.00     0.021 A 
ATOM     23  N   UNL     1      34.222  29.646  42.889  1.00  0.00    -0.264 NA
ATOM     24  C   UNL     1      34.834  30.843  42.984  1.00  0.00     0.111 A 
ENDBRANCH  17  19
ENDBRANCH  12  14
ENDBRANCH   8  12
ENDBRANCH   1   5
BRANCH   2  25
ATOM     25  C   UNL     1      25.102  25.772  43.311  1.00  0.00     0.040 A 
ATOM     26  C   UNL     1      25.676  25.076  42.243  1.00  0.00     0.014 A 
ATOM     27  C   UNL     1      23.866  26.408  43.144  1.00  0.00     0.014 A 
ATOM     28  C   UNL     1      25.001  24.987  41.024  1.00  0.00     0.006 A 
ATOM     29  C   UNL     1      23.194  26.320  41.921  1.00  0.00     0.006 A 
ATOM     30  C   UNL     1      23.749  25.598  40.854  1.00  0.00    -0.034 A 
BRANCH  30  31
ATOM     31  C   UNL     1      23.026  25.514  39.522  1.00  0.00     0.120 C 
BRANCH  31  32
ATOM     32  N   UNL     1      23.812  26.085  38.412  1.00  0.00    -0.297 NA
ATOM     33  C   UNL     1      23.289  25.615  37.115  1.00  0.00     0.100 C 
ATOM     34  C   UNL     1      25.247  25.729  38.519  1.00  0.00     0.100 C 
ATOM     35  C   UNL     1      23.508  24.108  36.809  1.00  0.00     0.099 C 
ATOM     36  C   UNL     1      25.721  24.506  37.685  1.00  0.00     0.099 C 
ATOM     37  N   UNL     1      24.659  23.507  37.509  1.00  0.00    -0.304 NA
ATOM     38  C   UNL     1      25.141  22.318  36.815  1.00  0.00     0.105 C 
ENDBRANCH  31  32
ENDBRANCH  30  31
ENDBRANCH   2  25
TORSDOF 7
ENDMDL
MODEL 3
REMARK VINA RESULT:    17.016      2.220      9.862
REMARK INTER + INTRA:          23.531
REMARK INTER:                  24.609
REMARK INTRA:                  -1.078
REMARK UNBOUND:                -0.448
REMARK SMILES Cc1ccc(NC(=O)c2ccc(CN3CCN(C)CC3)cc2)cc1Nc1nc(-c2cccnc2)cs1
REMARK SMILES IDX 6 1 7 2 8 3 5 5 2 6 3 7 24 8 4 9 23 10 1 11 25 12 26 14
REMARK SMILES IDX 27 15 36 16 28 17 35 18 29 19 30 20 34 21 31 22 33 23 32 24
REMARK SMILES IDX 9 25 10 26 22 27 11 28 21 29 12 30 13 31 14 32 15 33 20 34
REMARK SMILES IDX 16 35 19 36 17 37 18 38
REMARK H PARENT 6 4 25 13
ROOT
ATOM      1  N   UNL     1      27.453  25.267  44.590  1.00  0.00    -0.322 N 
ATOM      2  C   UNL     1      26.136  25.690  44.634  1.00  0.00     0.255 C 
ATOM      3  O   UNL     1      25.551  26.177  45.594  1.00  0.00    -0.269 OA
ATOM      4  H   UNL     1      27.821  25.027  43.680  1.00  0.00     0.170 HD
ENDROOT
BRANCH   1   5
ATOM      5  C   UNL     1      28.382  25.252  45.651  1.00  0.00     0.043 A 
ATOM      6  C   UNL     1      30.249  25.040  47.760  1.00  0.00    -0.027 A 
ATOM      7  C   UNL     1      29.626  23.899  47.241  1.00  0.00     0.008 A 
ATOM      8  C   UNL     1      29.910  26.302  47.238  1.00  0.00     0.045 A 
ATOM      9  C   UNL     1      28.704  24.005  46.196  1.00  0.00     0.026 A 
ATOM     10  C   UNL     1      28.981  26.393  46.185  1.00  0.00     0.052 A 
ATOM     11  C   UNL     1      31.238  24.890  48.883  1.00  0.00     0.046 C 
BRANCH   8  12
ATOM     12  N   UNL     1      30.484  27.483  47.767  1.00  0.00    -0.331 N 
ATOM     13  H   UNL     1      31.334  27.271  48.282  1.00  0.00     0.169 HD
BRANCH  12  14
ATOM     14  C   UNL     1      30.637  28.627  47.045  1.00  0.00     0.187 A 
ATOM     15  N   UNL     1      31.710  28.830  46.309  1.00  0.00    -0.220 NA
ATOM     16  S   UNL     1      29.508  29.934  47.011  1.00  0.00    -0.105 S 
ATOM     17  C   UNL     1      31.671  30.066  45.680  1.00  0.00     0.085 A 
ATOM     18  C   UNL     1      30.532  30.799  45.945  1.00  0.00     0.097 A 
BRANCH  17  19
ATOM     19  C   UNL     1      32.771  30.501  44.825  1.00  0.00     0.019 A 
ATOM     20  C   UNL     1      33.376  29.680  43.868  1.00  0.00     0.013 A 
ATOM     21  C   UNL     1      33.264  31.801  44.934  1.00  0.00     0.121 A 
ATOM     22  C   UNL     1      34.418  30.175  43.080  1.00  0.00     0.021 A 
ATOM     23  N   UNL     1      34.276  32.310  44.183  1.00  0.00    -0.264 NA
ATOM     24  C   UNL     1      34.828  31.483  43.273  1.00  0.00     0.111 A 
ENDBRANCH  17  19
ENDBRANCH  12  14
ENDBRANCH   8  12
ENDBRANCH   1   5
BRANCH   2  25
ATOM     25  C   UNL     1      25.405  25.570  43.342  1.00  0.00     0.040 A 
ATOM     26  C   UNL     1      26.030  24.913  42.278  1.00  0.00     0.014 A 
ATOM     27  C   UNL     1      24.124  26.110  43.171  1.00  0.00     0.014 A 
ATOM     28  C   UNL     1      25.365  24.766  41.060  1.00  0.00     0.006 A 
ATOM     29  C   UNL     1      23.462  25.965  41.948  1.00  0.00     0.006 A 
ATOM     30  C   UNL     1      24.071  25.281  40.885  1.00  0.00    -0.034 A 
BRANCH  30  31
ATOM     31  C   UNL     1      23.357  25.135  39.553  1.00  0.00     0.120 C 
BRANCH  31  32
ATOM     32  N   UNL     1      24.282  25.179  38.405  1.00  0.00    -0.297 NA
ATOM     33  C   UNL     1      24.383  26.551  37.876  1.00  0.00     0.100 C 
ATOM     34  C   UNL     1      23.849  24.265  37.320  1.00  0.00     0.100 C 
ATOM     35  C   UNL     1      23.108  27.095  37.173  1.00  0.00     0.099 C 
ATOM     36  C   UNL     1      23.032  24.905  36.163  1.00  0.00     0.099 C 
ATOM     37  N   UNL     1      22.231  26.049  36.613  1.00  0.00    -0.304 NA
ATOM     38  C   UNL     1      21.389  26.578  35.545  1.00  0.00     0.105 C 
ENDBRANCH  31  32
ENDBRANCH  30  31
ENDBRANCH   2  25
TORSDOF 7
ENDMDL
MODEL 4
REMARK VINA RESULT:    17.251      5.615      7.485
REMARK INTER + INTRA:          23.862
REMARK INTER:                  24.444
REMARK INTRA:                  -0.581
REMARK UNBOUND:                -0.448
REMARK SMILES Cc1ccc(NC(=O)c2ccc(CN3CCN(C)CC3)cc2)cc1Nc1nc(-c2cccnc2)cs1
REMARK SMILES IDX 6 1 7 2 8 3 5 5 2 6 3 7 24 8 4 9 23 10 1 11 25 12 26 14
REMARK SMILES IDX 27 15 36 16 28 17 35 18 29 19 30 20 34 21 31 22 33 23 32 24
REMARK SMILES IDX 9 25 10 26 22 27 11 28 21 29 12 30 13 31 14 32 15 33 20 34
REMARK SMILES IDX 16 35 19 36 17 37 18 38
REMARK H PARENT 6 4 25 13
ROOT
ATOM      1  N   UNL     1      26.730  25.549  45.482  1.00  0.00    -0.322 N 
ATOM      2  C   UNL     1      27.574  24.482  45.229  1.00  0.00     0.255 C 
ATOM      3  O   UNL     1      27.553  23.742  44.254  1.00  0.00    -0.269 OA
ATOM      4  H   UNL     1      26.976  26.147  46.258  1.00  0.00     0.170 HD
ENDROOT
BRANCH   1   5
ATOM      5  C   UNL     1      25.632  25.974  44.704  1.00  0.00     0.043 A 
ATOM      6  C   UNL     1      23.335  26.825  43.298  1.00  0.00    -0.027 A 
ATOM      7  C   UNL     1      23.239  26.389  44.625  1.00  0.00     0.008 A 
ATOM      8  C   UNL     1      24.589  26.804  42.660  1.00  0.00     0.045 A 
ATOM      9  C   UNL     1      24.376  25.970  45.320  1.00  0.00     0.026 A 
ATOM     10  C   UNL     1      25.726  26.381  43.373  1.00  0.00     0.052 A 
ATOM     11  C   UNL     1      22.091  27.271  42.580  1.00  0.00     0.046 C 
BRANCH   8  12
ATOM     12  N   UNL     1      24.720  27.193  41.305  1.00  0.00    -0.331 N 
ATOM     13  H   UNL     1      25.441  27.903  41.202  1.00  0.00     0.169 HD
BRANCH  12  14
ATOM     14  C   UNL     1      24.774  26.306  40.274  1.00  0.00     0.187 A 
ATOM     15  N   UNL     1      23.897  26.348  39.293  1.00  0.00    -0.220 NA
ATOM     16  S   UNL     1      25.934  25.035  40.123  1.00  0.00    -0.105 S 
ATOM     17  C   UNL     1      24.122  25.341  38.365  1.00  0.00     0.085 A 
ATOM     18  C   UNL     1      25.203  24.535  38.658  1.00  0.00     0.097 A 
BRANCH  17  19
ATOM     19  C   UNL     1      23.254  25.194  37.201  1.00  0.00     0.019 A 
ATOM     20  C   UNL     1      23.170  24.021  36.444  1.00  0.00     0.013 A 
ATOM     21  C   UNL     1      22.445  26.256  36.798  1.00  0.00     0.121 A 
ATOM     22  C   UNL     1      22.306  23.956  35.348  1.00  0.00     0.021 A 
ATOM     23  N   UNL     1      21.597  26.223  35.737  1.00  0.00    -0.264 NA
ATOM     24  C   UNL     1      21.548  25.072  35.038  1.00  0.00     0.111 A 
ENDBRANCH  17  19
ENDBRANCH  12  14
ENDBRANCH   8  12
ENDBRANCH   1   5
BRANCH   2  25
ATOM     25  C   UNL     1      28.639  24.281  46.251  1.00  0.00     0.040 A 
ATOM     26  C   UNL     1      29.308  23.055  46.287  1.00  0.00     0.014 A 
ATOM     27  C   UNL     1      28.968  25.282  47.175  1.00  0.00     0.014 A 
ATOM     28  C   UNL     1      30.325  22.840  47.219  1.00  0.00     0.006 A 
ATOM     29  C   UNL     1      29.984  25.062  48.110  1.00  0.00     0.006 A 
ATOM     30  C   UNL     1      30.681  23.845  48.133  1.00  0.00    -0.034 A 
BRANCH  30  31
ATOM     31  C   UNL     1      31.774  23.602  49.158  1.00  0.00     0.120 C 
BRANCH  31  32
ATOM     32  N   UNL     1      33.049  24.247  48.792  1.00  0.00    -0.297 NA
ATOM     33  C   UNL     1      34.164  23.654  49.553  1.00  0.00     0.100 C 
ATOM     34  C   UNL     1      33.011  25.710  49.038  1.00  0.00     0.100 C 
ATOM     35  C   UNL     1      34.174  23.958  51.076  1.00  0.00     0.099 C 
ATOM     36  C   UNL     1      33.617  26.201  50.381  1.00  0.00     0.099 C 
ATOM     37  N   UNL     1      33.480  25.206  51.451  1.00  0.00    -0.304 NA
ATOM     38  C   UNL     1      33.959  25.715  52.732  1.00  0.00     0.105 C 
ENDBRANCH  31  32
ENDBRANCH  30  31
ENDBRANCH   2  25
TORSDOF 7
ENDMDL
MODEL 5
REMARK VINA RESULT:    18.367      6.122      9.279
REMARK INTER + INTRA:          25.435
REMARK INTER:                  24.131
REMARK INTRA:                   1.305
REMARK UNBOUND:                -0.448
REMARK SMILES Cc1ccc(NC(=O)c2ccc(CN3CCN(C)CC3)cc2)cc1Nc1nc(-c2cccnc2)cs1
REMARK SMILES IDX 6 1 7 2 8 3 5 5 2 6 3 7 24 8 4 9 23 10 1 11 25 12 26 14
REMARK SMILES IDX 27 15 36 16 28 17 35 18 29 19 30 20 34 21 31 22 33 23 32 24
REMARK SMILES IDX 9 25 10 26 22 27 11 28 21 29 12 30 13 31 14 32 15 33 20 34
REMARK SMILES IDX 16 35 19 36 17 37 18 38
REMARK H PARENT 6 4 25 13
ROOT
ATOM      1  N   UNL     1      25.892  24.723  41.522  1.00  0.00    -0.322 N 
ATOM      2  C   UNL     1      25.363  25.301  42.662  1.00  0.00     0.255 C 
ATOM      3  O   UNL     1      24.279  25.861  42.768  1.00  0.00    -0.269 OA
ATOM      4  H   UNL     1      26.732  24.174  41.640  1.00  0.00     0.170 HD
ENDROOT
BRANCH   1   5
ATOM      5  C   UNL     1      25.325  24.706  40.230  1.00  0.00     0.043 A 
ATOM      6  C   UNL     1      24.118  24.510  37.684  1.00  0.00    -0.027 A 
ATOM      7  C   UNL     1      24.153  23.406  38.545  1.00  0.00     0.008 A 
ATOM      8  C   UNL     1      24.723  25.714  38.091  1.00  0.00     0.045 A 
ATOM      9  C   UNL     1      24.748  23.505  39.805  1.00  0.00     0.026 A 
ATOM     10  C   UNL     1      25.318  25.799  39.363  1.00  0.00     0.052 A 
ATOM     11  C   UNL     1      23.467  24.369  36.335  1.00  0.00     0.046 C 
BRANCH   8  12
ATOM     12  N   UNL     1      24.749  26.838  37.231  1.00  0.00    -0.331 N 
ATOM     13  H   UNL     1      25.388  26.683  36.455  1.00  0.00     0.169 HD
BRANCH  12  14
ATOM     14  C   UNL     1      23.627  27.478  36.803  1.00  0.00     0.187 A 
ATOM     15  N   UNL     1      23.599  28.787  36.668  1.00  0.00    -0.220 NA
ATOM     16  S   UNL     1      22.132  26.702  36.417  1.00  0.00    -0.105 S 
ATOM     17  C   UNL     1      22.354  29.230  36.245  1.00  0.00     0.085 A 
ATOM     18  C   UNL     1      21.433  28.221  36.049  1.00  0.00     0.097 A 
BRANCH  17  19
ATOM     19  C   UNL     1      22.098  30.653  36.045  1.00  0.00     0.019 A 
ATOM     20  C   UNL     1      20.846  31.247  36.239  1.00  0.00     0.013 A 
ATOM     21  C   UNL     1      23.135  31.497  35.649  1.00  0.00     0.121 A 
ATOM     22  C   UNL     1      20.685  32.620  36.037  1.00  0.00     0.021 A 
ATOM     23  N   UNL     1      23.008  32.834  35.444  1.00  0.00    -0.264 NA
ATOM     24  C   UNL     1      21.785  33.363  35.644  1.00  0.00     0.111 A 
ENDBRANCH  17  19
ENDBRANCH  12  14
ENDBRANCH   8  12
ENDBRANCH   1   5
BRANCH   2  25
ATOM     25  C   UNL     1      26.212  25.159  43.878  1.00  0.00     0.040 A 
ATOM     26  C   UNL     1      27.157  24.130  43.917  1.00  0.00     0.014 A 
ATOM     27  C   UNL     1      26.072  26.018  44.975  1.00  0.00     0.014 A 
ATOM     28  C   UNL     1      27.982  23.981  45.033  1.00  0.00     0.006 A 
ATOM     29  C   UNL     1      26.897  25.864  46.093  1.00  0.00     0.006 A 
ATOM     30  C   UNL     1      27.868  24.852  46.128  1.00  0.00    -0.034 A 
BRANCH  30  31
ATOM     31  C   UNL     1      28.755  24.675  47.347  1.00  0.00     0.120 C 
BRANCH  31  32
ATOM     32  N   UNL     1      29.510  23.409  47.323  1.00  0.00    -0.297 NA
ATOM     33  C   UNL     1      29.825  22.970  48.695  1.00  0.00     0.100 C 
ATOM     34  C   UNL     1      30.768  23.538  46.548  1.00  0.00     0.100 C 
ATOM     35  C   UNL     1      30.856  23.845  49.460  1.00  0.00     0.099 C 
ATOM     36  C   UNL     1      32.058  23.819  47.368  1.00  0.00     0.099 C 
ATOM     37  N   UNL     1      31.787  24.587  48.589  1.00  0.00    -0.304 NA
ATOM     38  C   UNL     1      33.015  24.934  49.297  1.00  0.00     0.105 C 
ENDBRANCH  31  32
ENDBRANCH  30  31
ENDBRANCH   2  25
TORSDOF 7
ENDMDL
MODEL 6
REMARK VINA RESULT:    18.867      5.370      7.415
REMARK INTER + INTRA:          26.139
REMARK INTER:                  25.424
REMARK INTRA:                   0.715
REMARK UNBOUND:                -0.448
REMARK SMILES Cc1ccc(NC(=O)c2ccc(CN3CCN(C)CC3)cc2)cc1Nc1nc(-c2cccnc2)cs1
REMARK SMILES IDX 6 1 7 2 8 3 5 5 2 6 3 7 24 8 4 9 23 10 1 11 25 12 26 14
REMARK SMILES IDX 27 15 36 16 28 17 35 18 29 19 30 20 34 21 31 22 33 23 32 24
REMARK SMILES IDX 9 25 10 26 22 27 11 28 21 29 12 30 13 31 14 32 15 33 20 34
REMARK SMILES IDX 16 35 19 36 17 37 18 38
REMARK H PARENT 6 4 25 13
ROOT
ATOM      1  N   UNL     1      26.635  25.167  44.627  1.00  0.00    -0.322 N 
ATOM      2  C   UNL     1      26.880  25.572  45.927  1.00  0.00     0.255 C 
ATOM      3  O   UNL     1      26.140  26.236  46.642  1.00  0.00    -0.269 OA
ATOM      4  H   UNL     1      27.284  24.501  44.230  1.00  0.00     0.170 HD
ENDROOT
BRANCH   1   5
ATOM      5  C   UNL     1      25.513  25.478  43.831  1.00  0.00     0.043 A 
ATOM      6  C   UNL     1      23.234  26.241  42.347  1.00  0.00    -0.027 A 
ATOM      7  C   UNL     1      23.507  26.828  43.590  1.00  0.00     0.008 A 
ATOM      8  C   UNL     1      24.094  25.240  41.859  1.00  0.00     0.045 A 
ATOM      9  C   UNL     1      24.636  26.450  44.321  1.00  0.00     0.026 A 
ATOM     10  C   UNL     1      25.228  24.872  42.607  1.00  0.00     0.052 A 
ATOM     11  C   UNL     1      22.011  26.673  41.585  1.00  0.00     0.046 C 
BRANCH   8  12
ATOM     12  N   UNL     1      23.827  24.592  40.630  1.00  0.00    -0.331 N 
ATOM     13  H   UNL     1      22.900  24.174  40.637  1.00  0.00     0.169 HD
BRANCH  12  14
ATOM     14  C   UNL     1      24.087  25.152  39.417  1.00  0.00     0.187 A 
ATOM     15  N   UNL     1      23.210  25.935  38.826  1.00  0.00    -0.220 NA
ATOM     16  S   UNL     1      25.534  24.909  38.505  1.00  0.00    -0.105 S 
ATOM     17  C   UNL     1      23.668  26.376  37.593  1.00  0.00     0.085 A 
ATOM     18  C   UNL     1      24.927  25.919  37.262  1.00  0.00     0.097 A 
BRANCH  17  19
ATOM     19  C   UNL     1      22.844  27.246  36.760  1.00  0.00     0.019 A 
ATOM     20  C   UNL     1      21.693  26.812  36.093  1.00  0.00     0.013 A 
ATOM     21  C   UNL     1      23.186  28.589  36.605  1.00  0.00     0.121 A 
ATOM     22  C   UNL     1      20.951  27.710  35.322  1.00  0.00     0.021 A 
ATOM     23  N   UNL     1      22.485  29.485  35.862  1.00  0.00    -0.264 NA
ATOM     24  C   UNL     1      21.383  29.022  35.239  1.00  0.00     0.111 A 
ENDBRANCH  17  19
ENDBRANCH  12  14
ENDBRANCH   8  12
ENDBRANCH   1   5
BRANCH   2  25
ATOM     25  C   UNL     1      28.168  25.085  46.494  1.00  0.00     0.040 A 
ATOM     26  C   UNL     1      28.642  23.831  46.098  1.00  0.00     0.014 A 
ATOM     27  C   UNL     1      28.897  25.845  47.418  1.00  0.00     0.014 A 
ATOM     28  C   UNL     1      29.855  23.353  46.595  1.00  0.00     0.006 A 
ATOM     29  C   UNL     1      30.110  25.361  47.918  1.00  0.00     0.006 A 
ATOM     30  C   UNL     1      30.607  24.117  47.502  1.00  0.00    -0.034 A 
BRANCH  30  31
ATOM     31  C   UNL     1      31.917  23.586  48.055  1.00  0.00     0.120 C 
BRANCH  31  32
ATOM     32  N   UNL     1      32.205  24.084  49.412  1.00  0.00    -0.297 NA
ATOM     33  C   UNL     1      32.599  25.504  49.368  1.00  0.00     0.100 C 
ATOM     34  C   UNL     1      33.279  23.297  50.067  1.00  0.00     0.100 C 
ATOM     35  C   UNL     1      33.976  25.799  48.712  1.00  0.00     0.099 C 
ATOM     36  C   UNL     1      34.714  23.888  49.988  1.00  0.00     0.099 C 
ATOM     37  N   UNL     1      34.927  24.672  48.766  1.00  0.00    -0.304 NA
ATOM     38  C   UNL     1      36.306  25.135  48.651  1.00  0.00     0.105 C 
ENDBRANCH  31  32
ENDBRANCH  30  31
ENDBRANCH   2  25
TORSDOF 7
ENDMDL
MODEL 7
REMARK VINA RESULT:    19.226      5.970     11.908
REMARK INTER + INTRA:          26.645
REMARK INTER:                  26.080
REMARK INTRA:                   0.564
REMARK UNBOUND:                -0.448
REMARK SMILES Cc1ccc(NC(=O)c2ccc(CN3CCN(C)CC3)cc2)cc1Nc1nc(-c2cccnc2)cs1
REMARK SMILES IDX 6 1 7 2 8 3 5 5 2 6 3 7 24 8 4 9 23 10 1 11 25 12 26 14
REMARK SMILES IDX 27 15 36 16 28 17 35 18 29 19 30 20 34 21 31 22 33 23 32 24
REMARK SMILES IDX 9 25 10 26 22 27 11 28 21 29 12 30 13 31 14 32 15 33 20 34
REMARK SMILES IDX 16 35 19 36 17 37 18 38
REMARK H PARENT 6 4 25 13
ROOT
ATOM      1  N   UNL     1      25.114  24.800  40.917  1.00  0.00    -0.322 N 
ATOM      2  C   UNL     1      25.143  25.338  39.643  1.00  0.00     0.255 C 
ATOM      3  O   UNL     1      25.326  26.511  39.342  1.00  0.00    -0.269 OA
ATOM      4  H   UNL     1      25.099  23.792  40.984  1.00  0.00     0.170 HD
ENDROOT
BRANCH   1   5
ATOM      5  C   UNL     1      25.229  25.494  42.140  1.00  0.00     0.043 A 
ATOM      6  C   UNL     1      25.364  27.018  44.515  1.00  0.00    -0.027 A 
ATOM      7  C   UNL     1      24.894  27.589  43.325  1.00  0.00     0.008 A 
ATOM      8  C   UNL     1      25.800  25.680  44.506  1.00  0.00     0.045 A 
ATOM      9  C   UNL     1      24.826  26.833  42.152  1.00  0.00     0.026 A 
ATOM     10  C   UNL     1      25.724  24.931  43.317  1.00  0.00     0.052 A 
ATOM     11  C   UNL     1      25.422  27.859  45.760  1.00  0.00     0.046 C 
BRANCH   8  12
ATOM     12  N   UNL     1      26.325  25.081  45.676  1.00  0.00    -0.331 N 
ATOM     13  H   UNL     1      25.598  24.580  46.181  1.00  0.00     0.169 HD
BRANCH  12  14
ATOM     14  C   UNL     1      27.490  24.378  45.698  1.00  0.00     0.187 A 
ATOM     15  N   UNL     1      28.431  24.647  46.578  1.00  0.00    -0.220 NA
ATOM     16  S   UNL     1      27.898  23.104  44.604  1.00  0.00    -0.105 S 
ATOM     17  C   UNL     1      29.540  23.830  46.406  1.00  0.00     0.085 A 
ATOM     18  C   UNL     1      29.415  22.919  45.376  1.00  0.00     0.097 A 
BRANCH  17  19
ATOM     19  C   UNL     1      30.709  23.969  47.268  1.00  0.00     0.019 A 
ATOM     20  C   UNL     1      30.637  24.373  48.606  1.00  0.00     0.013 A 
ATOM     21  C   UNL     1      31.979  23.683  46.769  1.00  0.00     0.121 A 
ATOM     22  C   UNL     1      31.803  24.472  49.369  1.00  0.00     0.021 A 
ATOM     23  N   UNL     1      33.130  23.771  47.487  1.00  0.00    -0.264 NA
ATOM     24  C   UNL     1      33.013  24.163  48.771  1.00  0.00     0.111 A 
ENDBRANCH  17  19
ENDBRANCH  12  14
ENDBRANCH   8  12
ENDBRANCH   1   5
BRANCH   2  25
ATOM     25  C   UNL     1      24.983  24.341  38.548  1.00  0.00     0.040 A 
ATOM     26  C   UNL     1      25.795  23.203  38.555  1.00  0.00     0.014 A 
ATOM     27  C   UNL     1      24.054  24.527  37.515  1.00  0.00     0.014 A 
ATOM     28  C   UNL     1      25.657  22.239  37.555  1.00  0.00     0.006 A 
ATOM     29  C   UNL     1      23.922  23.562  36.512  1.00  0.00     0.006 A 
ATOM     30  C   UNL     1      24.712  22.403  36.529  1.00  0.00    -0.034 A 
BRANCH  30  31
ATOM     31  C   UNL     1      24.578  21.361  35.433  1.00  0.00     0.120 C 
BRANCH  31  32
ATOM     32  N   UNL     1      23.175  20.984  35.177  1.00  0.00    -0.297 NA
ATOM     33  C   UNL     1      22.410  20.957  36.437  1.00  0.00     0.100 C 
ATOM     34  C   UNL     1      23.078  19.660  34.516  1.00  0.00     0.100 C 
ATOM     35  C   UNL     1      22.784  19.819  37.425  1.00  0.00     0.099 C 
ATOM     36  C   UNL     1      22.808  18.443  35.443  1.00  0.00     0.099 C 
ATOM     37  N   UNL     1      23.375  18.628  36.785  1.00  0.00    -0.304 NA
ATOM     38  C   UNL     1      23.207  17.440  37.614  1.00  0.00     0.105 C 
ENDBRANCH  31  32
ENDBRANCH  30  31
ENDBRANCH   2  25
TORSDOF 7
ENDMDL
